5192
ksi&psi trajectory with 10 & 10 deg step !! manualy cropped, in 10th degrees !!
U -18 -18 -10
W 18 -18 -10
F -18 18 -10
H -18 -18 10
B -18 18 10
B 18 -18 10
B 18 18 -10
B 18 18 10
C 1.02348  0  9
O -16.9765  18  -9
C 1.02348  1  9
O -16.9765  -17  -9
C 1.02348  2  9
O -16.9765  -16  -9
C 1.02348  3  9
O -16.9765  -15  -9
C 1.02348  4  9
O -16.9765  -14  -9
C 1.02348  5  9
O -16.9765  -13  -9
C 1.02348  6  9
O -16.9765  -12  -9
C 1.02348  7  9
O -16.9765  -11  -9
C 1.02348  8  9
O -16.9765  -10  -9
C 1.02348  9  9
O -16.9765  -9  -9
C 1.02348  10  9
O -16.9765  -8  -9
C 1.02348  11  9
O -16.9765  -7  -9
C 1.02348  12  9
O -16.9765  -6  -9
C 1.02348  13  9
O -16.9765  -5  -9
C 1.02348  14  9
O -16.9765  -4  -9
C 1.02348  15  9
O -16.9765  -3  -9
C 1.02348  16  9
O -16.9765  -2  -9
C 1.02348  17  9
O -16.9765  -1  -9
C 1.02348  18  9
O -16.9765  -0  -9
C 1.02348  -17  9
O -16.9765  1  -9
C 1.02348  -16  9
O -16.9765  2  -9
C 1.02348  -15  9
O -16.9765  3  -9
C 1.02348  -14  9
O -16.9765  4  -9
C 1.02348  -13  9
O -16.9765  5  -9
C 1.02348  -12  9
O -16.9765  6  -9
C 1.02348  -11  9
O -16.9765  7  -9
C 1.02348  -10  9
O -16.9765  8  -9
C 1.02348  -9  9
O -16.9765  9  -9
C 1.02348  -8  9
O -16.9765  10  -9
C 1.02348  -7  9
O -16.9765  11  -9
C 1.02348  -6  9
O -16.9765  12  -9
C 1.02348  -5  9
O -16.9765  13  -9
C 1.02348  -4  9
O -16.9765  14  -9
C 1.02348  -3  9
O -16.9765  15  -9
C 1.02348  -2  9
O -16.9765  16  -9
C 1.02348  -1  9
O -16.9765  17  -9
C 1.02348  -0  9
O -16.9765  18  -9
C 1.03893  0  8.01607
O -16.9611  18  -8.01607
C 1.03893  1  8.01607
O -16.9611  -17  -8.01607
C 1.03893  2  8.01607
O -16.9611  -16  -8.01607
C 1.03893  3  8.01607
O -16.9611  -15  -8.01607
C 1.03893  4  8.01607
O -16.9611  -14  -8.01607
C 1.03893  5  8.01607
O -16.9611  -13  -8.01607
C 1.03893  6  8.01607
O -16.9611  -12  -8.01607
C 1.03893  7  8.01607
O -16.9611  -11  -8.01607
C 1.03893  8  8.01607
O -16.9611  -10  -8.01607
C 1.03893  9  8.01607
O -16.9611  -9  -8.01607
C 1.03893  10  8.01607
O -16.9611  -8  -8.01607
C 1.03893  11  8.01607
O -16.9611  -7  -8.01607
C 1.03893  12  8.01607
O -16.9611  -6  -8.01607
C 1.03893  13  8.01607
O -16.9611  -5  -8.01607
C 1.03893  14  8.01607
O -16.9611  -4  -8.01607
C 1.03893  15  8.01607
O -16.9611  -3  -8.01607
C 1.03893  16  8.01607
O -16.9611  -2  -8.01607
C 1.03893  17  8.01607
O -16.9611  -1  -8.01607
C 1.03893  18  8.01607
O -16.9611  -0  -8.01607
C 1.03893  -17  8.01607
O -16.9611  1  -8.01607
C 1.03893  -16  8.01607
O -16.9611  2  -8.01607
C 1.03893  -15  8.01607
O -16.9611  3  -8.01607
C 1.03893  -14  8.01607
O -16.9611  4  -8.01607
C 1.03893  -13  8.01607
O -16.9611  5  -8.01607
C 1.03893  -12  8.01607
O -16.9611  6  -8.01607
C 1.03893  -11  8.01607
O -16.9611  7  -8.01607
C 1.03893  -10  8.01607
O -16.9611  8  -8.01607
C 1.03893  -9  8.01607
O -16.9611  9  -8.01607
C 1.03893  -8  8.01607
O -16.9611  10  -8.01607
C 1.03893  -7  8.01607
O -16.9611  11  -8.01607
C 1.03893  -6  8.01607
O -16.9611  12  -8.01607
C 1.03893  -5  8.01607
O -16.9611  13  -8.01607
C 1.03893  -4  8.01607
O -16.9611  14  -8.01607
C 1.03893  -3  8.01607
O -16.9611  15  -8.01607
C 1.03893  -2  8.01607
O -16.9611  16  -8.01607
C 1.03893  -1  8.01607
O -16.9611  17  -8.01607
C 1.03893  -0  8.01607
O -16.9611  18  -8.01607
C 1.08764  0  7.03315
O -16.9124  18  -7.03315
C 1.08764  1  7.03315
O -16.9124  -17  -7.03315
C 1.08764  2  7.03315
O -16.9124  -16  -7.03315
C 1.08764  3  7.03315
O -16.9124  -15  -7.03315
C 1.08764  4  7.03315
O -16.9124  -14  -7.03315
C 1.08764  5  7.03315
O -16.9124  -13  -7.03315
C 1.08764  6  7.03315
O -16.9124  -12  -7.03315
C 1.08764  7  7.03315
O -16.9124  -11  -7.03315
C 1.08764  8  7.03315
O -16.9124  -10  -7.03315
C 1.08764  9  7.03315
O -16.9124  -9  -7.03315
C 1.08764  10  7.03315
O -16.9124  -8  -7.03315
C 1.08764  11  7.03315
O -16.9124  -7  -7.03315
C 1.08764  12  7.03315
O -16.9124  -6  -7.03315
C 1.08764  13  7.03315
O -16.9124  -5  -7.03315
C 1.08764  14  7.03315
O -16.9124  -4  -7.03315
C 1.08764  15  7.03315
O -16.9124  -3  -7.03315
C 1.08764  16  7.03315
O -16.9124  -2  -7.03315
C 1.08764  17  7.03315
O -16.9124  -1  -7.03315
C 1.08764  18  7.03315
O -16.9124  -0  -7.03315
C 1.08764  -17  7.03315
O -16.9124  1  -7.03315
C 1.08764  -16  7.03315
O -16.9124  2  -7.03315
C 1.08764  -15  7.03315
O -16.9124  3  -7.03315
C 1.08764  -14  7.03315
O -16.9124  4  -7.03315
C 1.08764  -13  7.03315
O -16.9124  5  -7.03315
C 1.08764  -12  7.03315
O -16.9124  6  -7.03315
C 1.08764  -11  7.03315
O -16.9124  7  -7.03315
C 1.08764  -10  7.03315
O -16.9124  8  -7.03315
C 1.08764  -9  7.03315
O -16.9124  9  -7.03315
C 1.08764  -8  7.03315
O -16.9124  10  -7.03315
C 1.08764  -7  7.03315
O -16.9124  11  -7.03315
C 1.08764  -6  7.03315
O -16.9124  12  -7.03315
C 1.08764  -5  7.03315
O -16.9124  13  -7.03315
C 1.08764  -4  7.03315
O -16.9124  14  -7.03315
C 1.08764  -3  7.03315
O -16.9124  15  -7.03315
C 1.08764  -2  7.03315
O -16.9124  16  -7.03315
C 1.08764  -1  7.03315
O -16.9124  17  -7.03315
C 1.08764  -0  7.03315
O -16.9124  18  -7.03315
C 1.17768  0  6.0525
O -16.8223  18  -6.0525
C 1.17768  1  6.0525
O -16.8223  -17  -6.0525
C 1.17768  2  6.0525
O -16.8223  -16  -6.0525
C 1.17768  3  6.0525
O -16.8223  -15  -6.0525
C 1.17768  4  6.0525
O -16.8223  -14  -6.0525
C 1.17768  5  6.0525
O -16.8223  -13  -6.0525
C 1.17768  6  6.0525
O -16.8223  -12  -6.0525
C 1.17768  7  6.0525
O -16.8223  -11  -6.0525
C 1.17768  8  6.0525
O -16.8223  -10  -6.0525
C 1.17768  9  6.0525
O -16.8223  -9  -6.0525
C 1.17768  10  6.0525
O -16.8223  -8  -6.0525
C 1.17768  11  6.0525
O -16.8223  -7  -6.0525
C 1.17768  12  6.0525
O -16.8223  -6  -6.0525
C 1.17768  13  6.0525
O -16.8223  -5  -6.0525
C 1.17768  14  6.0525
O -16.8223  -4  -6.0525
C 1.17768  15  6.0525
O -16.8223  -3  -6.0525
C 1.17768  16  6.0525
O -16.8223  -2  -6.0525
C 1.17768  17  6.0525
O -16.8223  -1  -6.0525
C 1.17768  18  6.0525
O -16.8223  -0  -6.0525
C 1.17768  -17  6.0525
O -16.8223  1  -6.0525
C 1.17768  -16  6.0525
O -16.8223  2  -6.0525
C 1.17768  -15  6.0525
O -16.8223  3  -6.0525
C 1.17768  -14  6.0525
O -16.8223  4  -6.0525
C 1.17768  -13  6.0525
O -16.8223  5  -6.0525
C 1.17768  -12  6.0525
O -16.8223  6  -6.0525
C 1.17768  -11  6.0525
O -16.8223  7  -6.0525
C 1.17768  -10  6.0525
O -16.8223  8  -6.0525
C 1.17768  -9  6.0525
O -16.8223  9  -6.0525
C 1.17768  -8  6.0525
O -16.8223  10  -6.0525
C 1.17768  -7  6.0525
O -16.8223  11  -6.0525
C 1.17768  -6  6.0525
O -16.8223  12  -6.0525
C 1.17768  -5  6.0525
O -16.8223  13  -6.0525
C 1.17768  -4  6.0525
O -16.8223  14  -6.0525
C 1.17768  -3  6.0525
O -16.8223  15  -6.0525
C 1.17768  -2  6.0525
O -16.8223  16  -6.0525
C 1.17768  -1  6.0525
O -16.8223  17  -6.0525
C 1.17768  -0  6.0525
O -16.8223  18  -6.0525
C 1.32625  0  5.07608
O -16.6738  18  -5.07608
C 1.32625  1  5.07608
O -16.6738  -17  -5.07608
C 1.32625  2  5.07608
O -16.6738  -16  -5.07608
C 1.32625  3  5.07608
O -16.6738  -15  -5.07608
C 1.32625  4  5.07608
O -16.6738  -14  -5.07608
C 1.32625  5  5.07608
O -16.6738  -13  -5.07608
C 1.32625  6  5.07608
O -16.6738  -12  -5.07608
C 1.32625  7  5.07608
O -16.6738  -11  -5.07608
C 1.32625  8  5.07608
O -16.6738  -10  -5.07608
C 1.32625  9  5.07608
O -16.6738  -9  -5.07608
C 1.32625  10  5.07608
O -16.6738  -8  -5.07608
C 1.32625  11  5.07608
O -16.6738  -7  -5.07608
C 1.32625  12  5.07608
O -16.6738  -6  -5.07608
C 1.32625  13  5.07608
O -16.6738  -5  -5.07608
C 1.32625  14  5.07608
O -16.6738  -4  -5.07608
C 1.32625  15  5.07608
O -16.6738  -3  -5.07608
C 1.32625  16  5.07608
O -16.6738  -2  -5.07608
C 1.32625  17  5.07608
O -16.6738  -1  -5.07608
C 1.32625  18  5.07608
O -16.6738  -0  -5.07608
C 1.32625  -17  5.07608
O -16.6738  1  -5.07608
C 1.32625  -16  5.07608
O -16.6738  2  -5.07608
C 1.32625  -15  5.07608
O -16.6738  3  -5.07608
C 1.32625  -14  5.07608
O -16.6738  4  -5.07608
C 1.32625  -13  5.07608
O -16.6738  5  -5.07608
C 1.32625  -12  5.07608
O -16.6738  6  -5.07608
C 1.32625  -11  5.07608
O -16.6738  7  -5.07608
C 1.32625  -10  5.07608
O -16.6738  8  -5.07608
C 1.32625  -9  5.07608
O -16.6738  9  -5.07608
C 1.32625  -8  5.07608
O -16.6738  10  -5.07608
C 1.32625  -7  5.07608
O -16.6738  11  -5.07608
C 1.32625  -6  5.07608
O -16.6738  12  -5.07608
C 1.32625  -5  5.07608
O -16.6738  13  -5.07608
C 1.32625  -4  5.07608
O -16.6738  14  -5.07608
C 1.32625  -3  5.07608
O -16.6738  15  -5.07608
C 1.32625  -2  5.07608
O -16.6738  16  -5.07608
C 1.32625  -1  5.07608
O -16.6738  17  -5.07608
C 1.32625  -0  5.07608
O -16.6738  18  -5.07608
C 1.56898  0  4.10746
O -16.431  18  -4.10746
C 1.56898  1  4.10746
O -16.431  -17  -4.10746
C 1.56898  2  4.10746
O -16.431  -16  -4.10746
C 1.56898  3  4.10746
O -16.431  -15  -4.10746
C 1.56898  4  4.10746
O -16.431  -14  -4.10746
C 1.56898  5  4.10746
O -16.431  -13  -4.10746
C 1.56898  6  4.10746
O -16.431  -12  -4.10746
C 1.56898  7  4.10746
O -16.431  -11  -4.10746
C 1.56898  8  4.10746
O -16.431  -10  -4.10746
C 1.56898  9  4.10746
O -16.431  -9  -4.10746
C 1.56898  10  4.10746
O -16.431  -8  -4.10746
C 1.56898  11  4.10746
O -16.431  -7  -4.10746
C 1.56898  12  4.10746
O -16.431  -6  -4.10746
C 1.56898  13  4.10746
O -16.431  -5  -4.10746
C 1.56898  14  4.10746
O -16.431  -4  -4.10746
C 1.56898  15  4.10746
O -16.431  -3  -4.10746
C 1.56898  16  4.10746
O -16.431  -2  -4.10746
C 1.56898  17  4.10746
O -16.431  -1  -4.10746
C 1.56898  18  4.10746
O -16.431  -0  -4.10746
C 1.56898  -17  4.10746
O -16.431  1  -4.10746
C 1.56898  -16  4.10746
O -16.431  2  -4.10746
C 1.56898  -15  4.10746
O -16.431  3  -4.10746
C 1.56898  -14  4.10746
O -16.431  4  -4.10746
C 1.56898  -13  4.10746
O -16.431  5  -4.10746
C 1.56898  -12  4.10746
O -16.431  6  -4.10746
C 1.56898  -11  4.10746
O -16.431  7  -4.10746
C 1.56898  -10  4.10746
O -16.431  8  -4.10746
C 1.56898  -9  4.10746
O -16.431  9  -4.10746
C 1.56898  -8  4.10746
O -16.431  10  -4.10746
C 1.56898  -7  4.10746
O -16.431  11  -4.10746
C 1.56898  -6  4.10746
O -16.431  12  -4.10746
C 1.56898  -5  4.10746
O -16.431  13  -4.10746
C 1.56898  -4  4.10746
O -16.431  14  -4.10746
C 1.56898  -3  4.10746
O -16.431  15  -4.10746
C 1.56898  -2  4.10746
O -16.431  16  -4.10746
C 1.56898  -1  4.10746
O -16.431  17  -4.10746
C 1.56898  -0  4.10746
O -16.431  18  -4.10746
C 1.98552  0  3.15433
O -16.0145  18  -3.15433
C 1.98552  1  3.15433
O -16.0145  -17  -3.15433
C 1.98552  2  3.15433
O -16.0145  -16  -3.15433
C 1.98552  3  3.15433
O -16.0145  -15  -3.15433
C 1.98552  4  3.15433
O -16.0145  -14  -3.15433
C 1.98552  5  3.15433
O -16.0145  -13  -3.15433
C 1.98552  6  3.15433
O -16.0145  -12  -3.15433
C 1.98552  7  3.15433
O -16.0145  -11  -3.15433
C 1.98552  8  3.15433
O -16.0145  -10  -3.15433
C 1.98552  9  3.15433
O -16.0145  -9  -3.15433
C 1.98552  10  3.15433
O -16.0145  -8  -3.15433
C 1.98552  11  3.15433
O -16.0145  -7  -3.15433
C 1.98552  12  3.15433
O -16.0145  -6  -3.15433
C 1.98552  13  3.15433
O -16.0145  -5  -3.15433
C 1.98552  14  3.15433
O -16.0145  -4  -3.15433
C 1.98552  15  3.15433
O -16.0145  -3  -3.15433
C 1.98552  16  3.15433
O -16.0145  -2  -3.15433
C 1.98552  17  3.15433
O -16.0145  -1  -3.15433
C 1.98552  18  3.15433
O -16.0145  -0  -3.15433
C 1.98552  -17  3.15433
O -16.0145  1  -3.15433
C 1.98552  -16  3.15433
O -16.0145  2  -3.15433
C 1.98552  -15  3.15433
O -16.0145  3  -3.15433
C 1.98552  -14  3.15433
O -16.0145  4  -3.15433
C 1.98552  -13  3.15433
O -16.0145  5  -3.15433
C 1.98552  -12  3.15433
O -16.0145  6  -3.15433
C 1.98552  -11  3.15433
O -16.0145  7  -3.15433
C 1.98552  -10  3.15433
O -16.0145  8  -3.15433
C 1.98552  -9  3.15433
O -16.0145  9  -3.15433
C 1.98552  -8  3.15433
O -16.0145  10  -3.15433
C 1.98552  -7  3.15433
O -16.0145  11  -3.15433
C 1.98552  -6  3.15433
O -16.0145  12  -3.15433
C 1.98552  -5  3.15433
O -16.0145  13  -3.15433
C 1.98552  -4  3.15433
O -16.0145  14  -3.15433
C 1.98552  -3  3.15433
O -16.0145  15  -3.15433
C 1.98552  -2  3.15433
O -16.0145  16  -3.15433
C 1.98552  -1  3.15433
O -16.0145  17  -3.15433
C 1.98552  -0  3.15433
O -16.0145  18  -3.15433
C 2.783  0  2.23708
O -15.217  18  -2.23708
C 2.783  1  2.23708
O -15.217  -17  -2.23708
C 2.783  2  2.23708
O -15.217  -16  -2.23708
C 2.783  3  2.23708
O -15.217  -15  -2.23708
C 2.783  4  2.23708
O -15.217  -14  -2.23708
C 2.783  5  2.23708
O -15.217  -13  -2.23708
C 2.783  6  2.23708
O -15.217  -12  -2.23708
C 2.783  7  2.23708
O -15.217  -11  -2.23708
C 2.783  8  2.23708
O -15.217  -10  -2.23708
C 2.783  9  2.23708
O -15.217  -9  -2.23708
C 2.783  10  2.23708
O -15.217  -8  -2.23708
C 2.783  11  2.23708
O -15.217  -7  -2.23708
C 2.783  12  2.23708
O -15.217  -6  -2.23708
C 2.783  13  2.23708
O -15.217  -5  -2.23708
C 2.783  14  2.23708
O -15.217  -4  -2.23708
C 2.783  15  2.23708
O -15.217  -3  -2.23708
C 2.783  16  2.23708
O -15.217  -2  -2.23708
C 2.783  17  2.23708
O -15.217  -1  -2.23708
C 2.783  18  2.23708
O -15.217  -0  -2.23708
C 2.783  -17  2.23708
O -15.217  1  -2.23708
C 2.783  -16  2.23708
O -15.217  2  -2.23708
C 2.783  -15  2.23708
O -15.217  3  -2.23708
C 2.783  -14  2.23708
O -15.217  4  -2.23708
C 2.783  -13  2.23708
O -15.217  5  -2.23708
C 2.783  -12  2.23708
O -15.217  6  -2.23708
C 2.783  -11  2.23708
O -15.217  7  -2.23708
C 2.783  -10  2.23708
O -15.217  8  -2.23708
C 2.783  -9  2.23708
O -15.217  9  -2.23708
C 2.783  -8  2.23708
O -15.217  10  -2.23708
C 2.783  -7  2.23708
O -15.217  11  -2.23708
C 2.783  -6  2.23708
O -15.217  12  -2.23708
C 2.783  -5  2.23708
O -15.217  13  -2.23708
C 2.783  -4  2.23708
O -15.217  14  -2.23708
C 2.783  -3  2.23708
O -15.217  15  -2.23708
C 2.783  -2  2.23708
O -15.217  16  -2.23708
C 2.783  -1  2.23708
O -15.217  17  -2.23708
C 2.783  -0  2.23708
O -15.217  18  -2.23708
C 4.61172  0  1.42718
O -13.3883  18  -1.42718
C 4.61172  1  1.42718
O -13.3883  -17  -1.42718
C 4.61172  2  1.42718
O -13.3883  -16  -1.42718
C 4.61172  3  1.42718
O -13.3883  -15  -1.42718
C 4.61172  4  1.42718
O -13.3883  -14  -1.42718
C 4.61172  5  1.42718
O -13.3883  -13  -1.42718
C 4.61172  6  1.42718
O -13.3883  -12  -1.42718
C 4.61172  7  1.42718
O -13.3883  -11  -1.42718
C 4.61172  8  1.42718
O -13.3883  -10  -1.42718
C 4.61172  9  1.42718
O -13.3883  -9  -1.42718
C 4.61172  10  1.42718
O -13.3883  -8  -1.42718
C 4.61172  11  1.42718
O -13.3883  -7  -1.42718
C 4.61172  12  1.42718
O -13.3883  -6  -1.42718
C 4.61172  13  1.42718
O -13.3883  -5  -1.42718
C 4.61172  14  1.42718
O -13.3883  -4  -1.42718
C 4.61172  15  1.42718
O -13.3883  -3  -1.42718
C 4.61172  16  1.42718
O -13.3883  -2  -1.42718
C 4.61172  17  1.42718
O -13.3883  -1  -1.42718
C 4.61172  18  1.42718
O -13.3883  -0  -1.42718
C 4.61172  -17  1.42718
O -13.3883  1  -1.42718
C 4.61172  -16  1.42718
O -13.3883  2  -1.42718
C 4.61172  -15  1.42718
O -13.3883  3  -1.42718
C 4.61172  -14  1.42718
O -13.3883  4  -1.42718
C 4.61172  -13  1.42718
O -13.3883  5  -1.42718
C 4.61172  -12  1.42718
O -13.3883  6  -1.42718
C 4.61172  -11  1.42718
O -13.3883  7  -1.42718
C 4.61172  -10  1.42718
O -13.3883  8  -1.42718
C 4.61172  -9  1.42718
O -13.3883  9  -1.42718
C 4.61172  -8  1.42718
O -13.3883  10  -1.42718
C 4.61172  -7  1.42718
O -13.3883  11  -1.42718
C 4.61172  -6  1.42718
O -13.3883  12  -1.42718
C 4.61172  -5  1.42718
O -13.3883  13  -1.42718
C 4.61172  -4  1.42718
O -13.3883  14  -1.42718
C 4.61172  -3  1.42718
O -13.3883  15  -1.42718
C 4.61172  -2  1.42718
O -13.3883  16  -1.42718
C 4.61172  -1  1.42718
O -13.3883  17  -1.42718
C 4.61172  -0  1.42718
O -13.3883  18  -1.42718
C 9  0  1.02348
O -9  18  -1.02348
C 9  1  1.02348
O -9  -17  -1.02348
C 9  2  1.02348
O -9  -16  -1.02348
C 9  3  1.02348
O -9  -15  -1.02348
C 9  4  1.02348
O -9  -14  -1.02348
C 9  5  1.02348
O -9  -13  -1.02348
C 9  6  1.02348
O -9  -12  -1.02348
C 9  7  1.02348
O -9  -11  -1.02348
C 9  8  1.02348
O -9  -10  -1.02348
C 9  9  1.02348
O -9  -9  -1.02348
C 9  10  1.02348
O -9  -8  -1.02348
C 9  11  1.02348
O -9  -7  -1.02348
C 9  12  1.02348
O -9  -6  -1.02348
C 9  13  1.02348
O -9  -5  -1.02348
C 9  14  1.02348
O -9  -4  -1.02348
C 9  15  1.02348
O -9  -3  -1.02348
C 9  16  1.02348
O -9  -2  -1.02348
C 9  17  1.02348
O -9  -1  -1.02348
C 9  18  1.02348
O -9  -0  -1.02348
C 9  -17  1.02348
O -9  1  -1.02348
C 9  -16  1.02348
O -9  2  -1.02348
C 9  -15  1.02348
O -9  3  -1.02348
C 9  -14  1.02348
O -9  4  -1.02348
C 9  -13  1.02348
O -9  5  -1.02348
C 9  -12  1.02348
O -9  6  -1.02348
C 9  -11  1.02348
O -9  7  -1.02348
C 9  -10  1.02348
O -9  8  -1.02348
C 9  -9  1.02348
O -9  9  -1.02348
C 9  -8  1.02348
O -9  10  -1.02348
C 9  -7  1.02348
O -9  11  -1.02348
C 9  -6  1.02348
O -9  12  -1.02348
C 9  -5  1.02348
O -9  13  -1.02348
C 9  -4  1.02348
O -9  14  -1.02348
C 9  -3  1.02348
O -9  15  -1.02348
C 9  -2  1.02348
O -9  16  -1.02348
C 9  -1  1.02348
O -9  17  -1.02348
C 9  -0  1.02348
O -9  18  -1.02348
C 13.3883  0  1.42718
O -4.61172  18  -1.42718
C 13.3883  1  1.42718
O -4.61172  -17  -1.42718
C 13.3883  2  1.42718
O -4.61172  -16  -1.42718
C 13.3883  3  1.42718
O -4.61172  -15  -1.42718
C 13.3883  4  1.42718
O -4.61172  -14  -1.42718
C 13.3883  5  1.42718
O -4.61172  -13  -1.42718
C 13.3883  6  1.42718
O -4.61172  -12  -1.42718
C 13.3883  7  1.42718
O -4.61172  -11  -1.42718
C 13.3883  8  1.42718
O -4.61172  -10  -1.42718
C 13.3883  9  1.42718
O -4.61172  -9  -1.42718
C 13.3883  10  1.42718
O -4.61172  -8  -1.42718
C 13.3883  11  1.42718
O -4.61172  -7  -1.42718
C 13.3883  12  1.42718
O -4.61172  -6  -1.42718
C 13.3883  13  1.42718
O -4.61172  -5  -1.42718
C 13.3883  14  1.42718
O -4.61172  -4  -1.42718
C 13.3883  15  1.42718
O -4.61172  -3  -1.42718
C 13.3883  16  1.42718
O -4.61172  -2  -1.42718
C 13.3883  17  1.42718
O -4.61172  -1  -1.42718
C 13.3883  18  1.42718
O -4.61172  -0  -1.42718
C 13.3883  -17  1.42718
O -4.61172  1  -1.42718
C 13.3883  -16  1.42718
O -4.61172  2  -1.42718
C 13.3883  -15  1.42718
O -4.61172  3  -1.42718
C 13.3883  -14  1.42718
O -4.61172  4  -1.42718
C 13.3883  -13  1.42718
O -4.61172  5  -1.42718
C 13.3883  -12  1.42718
O -4.61172  6  -1.42718
C 13.3883  -11  1.42718
O -4.61172  7  -1.42718
C 13.3883  -10  1.42718
O -4.61172  8  -1.42718
C 13.3883  -9  1.42718
O -4.61172  9  -1.42718
C 13.3883  -8  1.42718
O -4.61172  10  -1.42718
C 13.3883  -7  1.42718
O -4.61172  11  -1.42718
C 13.3883  -6  1.42718
O -4.61172  12  -1.42718
C 13.3883  -5  1.42718
O -4.61172  13  -1.42718
C 13.3883  -4  1.42718
O -4.61172  14  -1.42718
C 13.3883  -3  1.42718
O -4.61172  15  -1.42718
C 13.3883  -2  1.42718
O -4.61172  16  -1.42718
C 13.3883  -1  1.42718
O -4.61172  17  -1.42718
C 13.3883  -0  1.42718
O -4.61172  18  -1.42718
C 15.217  0  2.23708
O -2.783  18  -2.23708
C 15.217  1  2.23708
O -2.783  -17  -2.23708
C 15.217  2  2.23708
O -2.783  -16  -2.23708
C 15.217  3  2.23708
O -2.783  -15  -2.23708
C 15.217  4  2.23708
O -2.783  -14  -2.23708
C 15.217  5  2.23708
O -2.783  -13  -2.23708
C 15.217  6  2.23708
O -2.783  -12  -2.23708
C 15.217  7  2.23708
O -2.783  -11  -2.23708
C 15.217  8  2.23708
O -2.783  -10  -2.23708
C 15.217  9  2.23708
O -2.783  -9  -2.23708
C 15.217  10  2.23708
O -2.783  -8  -2.23708
C 15.217  11  2.23708
O -2.783  -7  -2.23708
C 15.217  12  2.23708
O -2.783  -6  -2.23708
C 15.217  13  2.23708
O -2.783  -5  -2.23708
C 15.217  14  2.23708
O -2.783  -4  -2.23708
C 15.217  15  2.23708
O -2.783  -3  -2.23708
C 15.217  16  2.23708
O -2.783  -2  -2.23708
C 15.217  17  2.23708
O -2.783  -1  -2.23708
C 15.217  18  2.23708
O -2.783  -0  -2.23708
C 15.217  -17  2.23708
O -2.783  1  -2.23708
C 15.217  -16  2.23708
O -2.783  2  -2.23708
C 15.217  -15  2.23708
O -2.783  3  -2.23708
C 15.217  -14  2.23708
O -2.783  4  -2.23708
C 15.217  -13  2.23708
O -2.783  5  -2.23708
C 15.217  -12  2.23708
O -2.783  6  -2.23708
C 15.217  -11  2.23708
O -2.783  7  -2.23708
C 15.217  -10  2.23708
O -2.783  8  -2.23708
C 15.217  -9  2.23708
O -2.783  9  -2.23708
C 15.217  -8  2.23708
O -2.783  10  -2.23708
C 15.217  -7  2.23708
O -2.783  11  -2.23708
C 15.217  -6  2.23708
O -2.783  12  -2.23708
C 15.217  -5  2.23708
O -2.783  13  -2.23708
C 15.217  -4  2.23708
O -2.783  14  -2.23708
C 15.217  -3  2.23708
O -2.783  15  -2.23708
C 15.217  -2  2.23708
O -2.783  16  -2.23708
C 15.217  -1  2.23708
O -2.783  17  -2.23708
C 15.217  -0  2.23708
O -2.783  18  -2.23708
C 16.0145  0  3.15433
O -1.98552  18  -3.15433
C 16.0145  1  3.15433
O -1.98552  -17  -3.15433
C 16.0145  2  3.15433
O -1.98552  -16  -3.15433
C 16.0145  3  3.15433
O -1.98552  -15  -3.15433
C 16.0145  4  3.15433
O -1.98552  -14  -3.15433
C 16.0145  5  3.15433
O -1.98552  -13  -3.15433
C 16.0145  6  3.15433
O -1.98552  -12  -3.15433
C 16.0145  7  3.15433
O -1.98552  -11  -3.15433
C 16.0145  8  3.15433
O -1.98552  -10  -3.15433
C 16.0145  9  3.15433
O -1.98552  -9  -3.15433
C 16.0145  10  3.15433
O -1.98552  -8  -3.15433
C 16.0145  11  3.15433
O -1.98552  -7  -3.15433
C 16.0145  12  3.15433
O -1.98552  -6  -3.15433
C 16.0145  13  3.15433
O -1.98552  -5  -3.15433
C 16.0145  14  3.15433
O -1.98552  -4  -3.15433
C 16.0145  15  3.15433
O -1.98552  -3  -3.15433
C 16.0145  16  3.15433
O -1.98552  -2  -3.15433
C 16.0145  17  3.15433
O -1.98552  -1  -3.15433
C 16.0145  18  3.15433
O -1.98552  -0  -3.15433
C 16.0145  -17  3.15433
O -1.98552  1  -3.15433
C 16.0145  -16  3.15433
O -1.98552  2  -3.15433
C 16.0145  -15  3.15433
O -1.98552  3  -3.15433
C 16.0145  -14  3.15433
O -1.98552  4  -3.15433
C 16.0145  -13  3.15433
O -1.98552  5  -3.15433
C 16.0145  -12  3.15433
O -1.98552  6  -3.15433
C 16.0145  -11  3.15433
O -1.98552  7  -3.15433
C 16.0145  -10  3.15433
O -1.98552  8  -3.15433
C 16.0145  -9  3.15433
O -1.98552  9  -3.15433
C 16.0145  -8  3.15433
O -1.98552  10  -3.15433
C 16.0145  -7  3.15433
O -1.98552  11  -3.15433
C 16.0145  -6  3.15433
O -1.98552  12  -3.15433
C 16.0145  -5  3.15433
O -1.98552  13  -3.15433
C 16.0145  -4  3.15433
O -1.98552  14  -3.15433
C 16.0145  -3  3.15433
O -1.98552  15  -3.15433
C 16.0145  -2  3.15433
O -1.98552  16  -3.15433
C 16.0145  -1  3.15433
O -1.98552  17  -3.15433
C 16.0145  -0  3.15433
O -1.98552  18  -3.15433
C 16.431  0  4.10746
O -1.56898  18  -4.10746
C 16.431  1  4.10746
O -1.56898  -17  -4.10746
C 16.431  2  4.10746
O -1.56898  -16  -4.10746
C 16.431  3  4.10746
O -1.56898  -15  -4.10746
C 16.431  4  4.10746
O -1.56898  -14  -4.10746
C 16.431  5  4.10746
O -1.56898  -13  -4.10746
C 16.431  6  4.10746
O -1.56898  -12  -4.10746
C 16.431  7  4.10746
O -1.56898  -11  -4.10746
C 16.431  8  4.10746
O -1.56898  -10  -4.10746
C 16.431  9  4.10746
O -1.56898  -9  -4.10746
C 16.431  10  4.10746
O -1.56898  -8  -4.10746
C 16.431  11  4.10746
O -1.56898  -7  -4.10746
C 16.431  12  4.10746
O -1.56898  -6  -4.10746
C 16.431  13  4.10746
O -1.56898  -5  -4.10746
C 16.431  14  4.10746
O -1.56898  -4  -4.10746
C 16.431  15  4.10746
O -1.56898  -3  -4.10746
C 16.431  16  4.10746
O -1.56898  -2  -4.10746
C 16.431  17  4.10746
O -1.56898  -1  -4.10746
C 16.431  18  4.10746
O -1.56898  -0  -4.10746
C 16.431  -17  4.10746
O -1.56898  1  -4.10746
C 16.431  -16  4.10746
O -1.56898  2  -4.10746
C 16.431  -15  4.10746
O -1.56898  3  -4.10746
C 16.431  -14  4.10746
O -1.56898  4  -4.10746
C 16.431  -13  4.10746
O -1.56898  5  -4.10746
C 16.431  -12  4.10746
O -1.56898  6  -4.10746
C 16.431  -11  4.10746
O -1.56898  7  -4.10746
C 16.431  -10  4.10746
O -1.56898  8  -4.10746
C 16.431  -9  4.10746
O -1.56898  9  -4.10746
C 16.431  -8  4.10746
O -1.56898  10  -4.10746
C 16.431  -7  4.10746
O -1.56898  11  -4.10746
C 16.431  -6  4.10746
O -1.56898  12  -4.10746
C 16.431  -5  4.10746
O -1.56898  13  -4.10746
C 16.431  -4  4.10746
O -1.56898  14  -4.10746
C 16.431  -3  4.10746
O -1.56898  15  -4.10746
C 16.431  -2  4.10746
O -1.56898  16  -4.10746
C 16.431  -1  4.10746
O -1.56898  17  -4.10746
C 16.431  -0  4.10746
O -1.56898  18  -4.10746
C 16.6738  0  5.07608
O -1.32625  18  -5.07608
C 16.6738  1  5.07608
O -1.32625  -17  -5.07608
C 16.6738  2  5.07608
O -1.32625  -16  -5.07608
C 16.6738  3  5.07608
O -1.32625  -15  -5.07608
C 16.6738  4  5.07608
O -1.32625  -14  -5.07608
C 16.6738  5  5.07608
O -1.32625  -13  -5.07608
C 16.6738  6  5.07608
O -1.32625  -12  -5.07608
C 16.6738  7  5.07608
O -1.32625  -11  -5.07608
C 16.6738  8  5.07608
O -1.32625  -10  -5.07608
C 16.6738  9  5.07608
O -1.32625  -9  -5.07608
C 16.6738  10  5.07608
O -1.32625  -8  -5.07608
C 16.6738  11  5.07608
O -1.32625  -7  -5.07608
C 16.6738  12  5.07608
O -1.32625  -6  -5.07608
C 16.6738  13  5.07608
O -1.32625  -5  -5.07608
C 16.6738  14  5.07608
O -1.32625  -4  -5.07608
C 16.6738  15  5.07608
O -1.32625  -3  -5.07608
C 16.6738  16  5.07608
O -1.32625  -2  -5.07608
C 16.6738  17  5.07608
O -1.32625  -1  -5.07608
C 16.6738  18  5.07608
O -1.32625  -0  -5.07608
C 16.6738  -17  5.07608
O -1.32625  1  -5.07608
C 16.6738  -16  5.07608
O -1.32625  2  -5.07608
C 16.6738  -15  5.07608
O -1.32625  3  -5.07608
C 16.6738  -14  5.07608
O -1.32625  4  -5.07608
C 16.6738  -13  5.07608
O -1.32625  5  -5.07608
C 16.6738  -12  5.07608
O -1.32625  6  -5.07608
C 16.6738  -11  5.07608
O -1.32625  7  -5.07608
C 16.6738  -10  5.07608
O -1.32625  8  -5.07608
C 16.6738  -9  5.07608
O -1.32625  9  -5.07608
C 16.6738  -8  5.07608
O -1.32625  10  -5.07608
C 16.6738  -7  5.07608
O -1.32625  11  -5.07608
C 16.6738  -6  5.07608
O -1.32625  12  -5.07608
C 16.6738  -5  5.07608
O -1.32625  13  -5.07608
C 16.6738  -4  5.07608
O -1.32625  14  -5.07608
C 16.6738  -3  5.07608
O -1.32625  15  -5.07608
C 16.6738  -2  5.07608
O -1.32625  16  -5.07608
C 16.6738  -1  5.07608
O -1.32625  17  -5.07608
C 16.6738  -0  5.07608
O -1.32625  18  -5.07608
C 16.8223  0  6.0525
O -1.17768  18  -6.0525
C 16.8223  1  6.0525
O -1.17768  -17  -6.0525
C 16.8223  2  6.0525
O -1.17768  -16  -6.0525
C 16.8223  3  6.0525
O -1.17768  -15  -6.0525
C 16.8223  4  6.0525
O -1.17768  -14  -6.0525
C 16.8223  5  6.0525
O -1.17768  -13  -6.0525
C 16.8223  6  6.0525
O -1.17768  -12  -6.0525
C 16.8223  7  6.0525
O -1.17768  -11  -6.0525
C 16.8223  8  6.0525
O -1.17768  -10  -6.0525
C 16.8223  9  6.0525
O -1.17768  -9  -6.0525
C 16.8223  10  6.0525
O -1.17768  -8  -6.0525
C 16.8223  11  6.0525
O -1.17768  -7  -6.0525
C 16.8223  12  6.0525
O -1.17768  -6  -6.0525
C 16.8223  13  6.0525
O -1.17768  -5  -6.0525
C 16.8223  14  6.0525
O -1.17768  -4  -6.0525
C 16.8223  15  6.0525
O -1.17768  -3  -6.0525
C 16.8223  16  6.0525
O -1.17768  -2  -6.0525
C 16.8223  17  6.0525
O -1.17768  -1  -6.0525
C 16.8223  18  6.0525
O -1.17768  -0  -6.0525
C 16.8223  -17  6.0525
O -1.17768  1  -6.0525
C 16.8223  -16  6.0525
O -1.17768  2  -6.0525
C 16.8223  -15  6.0525
O -1.17768  3  -6.0525
C 16.8223  -14  6.0525
O -1.17768  4  -6.0525
C 16.8223  -13  6.0525
O -1.17768  5  -6.0525
C 16.8223  -12  6.0525
O -1.17768  6  -6.0525
C 16.8223  -11  6.0525
O -1.17768  7  -6.0525
C 16.8223  -10  6.0525
O -1.17768  8  -6.0525
C 16.8223  -9  6.0525
O -1.17768  9  -6.0525
C 16.8223  -8  6.0525
O -1.17768  10  -6.0525
C 16.8223  -7  6.0525
O -1.17768  11  -6.0525
C 16.8223  -6  6.0525
O -1.17768  12  -6.0525
C 16.8223  -5  6.0525
O -1.17768  13  -6.0525
C 16.8223  -4  6.0525
O -1.17768  14  -6.0525
C 16.8223  -3  6.0525
O -1.17768  15  -6.0525
C 16.8223  -2  6.0525
O -1.17768  16  -6.0525
C 16.8223  -1  6.0525
O -1.17768  17  -6.0525
C 16.8223  -0  6.0525
O -1.17768  18  -6.0525
C 16.9124  0  7.03315
O -1.08764  18  -7.03315
C 16.9124  1  7.03315
O -1.08764  -17  -7.03315
C 16.9124  2  7.03315
O -1.08764  -16  -7.03315
C 16.9124  3  7.03315
O -1.08764  -15  -7.03315
C 16.9124  4  7.03315
O -1.08764  -14  -7.03315
C 16.9124  5  7.03315
O -1.08764  -13  -7.03315
C 16.9124  6  7.03315
O -1.08764  -12  -7.03315
C 16.9124  7  7.03315
O -1.08764  -11  -7.03315
C 16.9124  8  7.03315
O -1.08764  -10  -7.03315
C 16.9124  9  7.03315
O -1.08764  -9  -7.03315
C 16.9124  10  7.03315
O -1.08764  -8  -7.03315
C 16.9124  11  7.03315
O -1.08764  -7  -7.03315
C 16.9124  12  7.03315
O -1.08764  -6  -7.03315
C 16.9124  13  7.03315
O -1.08764  -5  -7.03315
C 16.9124  14  7.03315
O -1.08764  -4  -7.03315
C 16.9124  15  7.03315
O -1.08764  -3  -7.03315
C 16.9124  16  7.03315
O -1.08764  -2  -7.03315
C 16.9124  17  7.03315
O -1.08764  -1  -7.03315
C 16.9124  18  7.03315
O -1.08764  -0  -7.03315
C 16.9124  -17  7.03315
O -1.08764  1  -7.03315
C 16.9124  -16  7.03315
O -1.08764  2  -7.03315
C 16.9124  -15  7.03315
O -1.08764  3  -7.03315
C 16.9124  -14  7.03315
O -1.08764  4  -7.03315
C 16.9124  -13  7.03315
O -1.08764  5  -7.03315
C 16.9124  -12  7.03315
O -1.08764  6  -7.03315
C 16.9124  -11  7.03315
O -1.08764  7  -7.03315
C 16.9124  -10  7.03315
O -1.08764  8  -7.03315
C 16.9124  -9  7.03315
O -1.08764  9  -7.03315
C 16.9124  -8  7.03315
O -1.08764  10  -7.03315
C 16.9124  -7  7.03315
O -1.08764  11  -7.03315
C 16.9124  -6  7.03315
O -1.08764  12  -7.03315
C 16.9124  -5  7.03315
O -1.08764  13  -7.03315
C 16.9124  -4  7.03315
O -1.08764  14  -7.03315
C 16.9124  -3  7.03315
O -1.08764  15  -7.03315
C 16.9124  -2  7.03315
O -1.08764  16  -7.03315
C 16.9124  -1  7.03315
O -1.08764  17  -7.03315
C 16.9124  -0  7.03315
O -1.08764  18  -7.03315
C 16.9611  0  8.01607
O -1.03893  18  -8.01607
C 16.9611  1  8.01607
O -1.03893  -17  -8.01607
C 16.9611  2  8.01607
O -1.03893  -16  -8.01607
C 16.9611  3  8.01607
O -1.03893  -15  -8.01607
C 16.9611  4  8.01607
O -1.03893  -14  -8.01607
C 16.9611  5  8.01607
O -1.03893  -13  -8.01607
C 16.9611  6  8.01607
O -1.03893  -12  -8.01607
C 16.9611  7  8.01607
O -1.03893  -11  -8.01607
C 16.9611  8  8.01607
O -1.03893  -10  -8.01607
C 16.9611  9  8.01607
O -1.03893  -9  -8.01607
C 16.9611  10  8.01607
O -1.03893  -8  -8.01607
C 16.9611  11  8.01607
O -1.03893  -7  -8.01607
C 16.9611  12  8.01607
O -1.03893  -6  -8.01607
C 16.9611  13  8.01607
O -1.03893  -5  -8.01607
C 16.9611  14  8.01607
O -1.03893  -4  -8.01607
C 16.9611  15  8.01607
O -1.03893  -3  -8.01607
C 16.9611  16  8.01607
O -1.03893  -2  -8.01607
C 16.9611  17  8.01607
O -1.03893  -1  -8.01607
C 16.9611  18  8.01607
O -1.03893  -0  -8.01607
C 16.9611  -17  8.01607
O -1.03893  1  -8.01607
C 16.9611  -16  8.01607
O -1.03893  2  -8.01607