5192
ksi&psi trajectory with 10 & 10 deg step !! manualy cropped, in 10th degrees !!
U -18 -18 -10
W 18 - 18 - 10
F - 18 18 - 10
H - 18 - 18 10
B - 18 18 10
B 18 - 18 10
B 18 18 - 10
B 18 18 10
C 1.02348  0  0
O 1.02348  0  -0
C 10.0235  9  1
O -7.97652  -9  -1
C 10.0235  9  2
O -7.97652  -9  -2
C 10.0235  9  3
O -7.97652  -9  -3
C 10.0235  9  4
O -7.97652  -9  -4
C 10.0235  9  5
O -7.97652  -9  -5
C 10.0235  9  6
O -7.97652  -9  -6
C 10.0235  9  7
O -7.97652  -9  -7
C 10.0235  9  8
O -7.97652  -9  -8
C 10.0235  9  9
O -7.97652  -9  -9
C 10.0235  9  10
O -7.97652  -9  -10
C 10.0235  9  11
O -7.97652  -9  -11
C 10.0235  9  12
O -7.97652  -9  -12
C 10.0235  9  13
O -7.97652  -9  -13
C 10.0235  9  14
O -7.97652  -9  -14
C 10.0235  9  15
O -7.97652  -9  -15
C 10.0235  9  16
O -7.97652  -9  -16
C 10.0235  9  17
O -7.97652  -9  -17
C -16.9765  0  18
O -16.9765  0  -18
C -7.97652  -9  17
O 10.0235  9  -17
C -7.97652  -9  16
O 10.0235  9  -16
C -7.97652  -9  15
O 10.0235  9  -15
C -7.97652  -9  14
O 10.0235  9  -14
C -7.97652  -9  13
O 10.0235  9  -13
C -7.97652  -9  12
O 10.0235  9  -12
C -7.97652  -9  11
O 10.0235  9  -11
C -7.97652  -9  10
O 10.0235  9  -10
C -7.97652  -9  9
O 10.0235  9  -9
C -7.97652  -9  8
O 10.0235  9  -8
C -7.97652  -9  7
O 10.0235  9  -7
C -7.97652  -9  6
O 10.0235  9  -6
C -7.97652  -9  5
O 10.0235  9  -5
C -7.97652  -9  4
O 10.0235  9  -4
C -7.97652  -9  3
O 10.0235  9  -3
C -7.97652  -9  2
O 10.0235  9  -2
C -7.97652  -9  1
O 10.0235  9  -1
C 1.02348  0  0
O 1.02348  0  -0
C -16.9611  18  0.983928
O 1.03893  -0  -0.983928
C 14.4491  13.4965  1.39937
O -3.55087  -4.5035  -1.39937
C 12.5539  11.6889  2.22
O -5.44605  -6.31107  -2.22
C 11.6877  10.913  3.1429
O -6.31229  -7.08698  -3.1429
C 11.19  10.51  4.09941
O -6.80997  -7.49001  -4.09941
C 10.8549  10.2757  5.07036
O -7.14507  -7.7243  -5.07036
C 10.6024  10.1325  6.04854
O -7.39761  -7.86754  -6.04854
C 10.3948  10.0457  7.03064
O -7.60517  -7.95428  -7.03064
C 10.2115  9.9988  8.01486
O -7.78848  -8.0012  -8.01486
C 10.0389  9.98393  9
O -7.96107  -8.01607  -9
C 9.86634  9.9988  9.98514
O -8.13366  -8.0012  -9.98514
C 9.68302  10.0457  10.9694
O -8.31698  -7.95428  -10.9694
C 9.47547  10.1325  11.9515
O -8.52453  -7.86754  -11.9515
C 9.22293  10.2757  12.9296
O -8.77707  -7.7243  -12.9296
C 8.88782  10.51  13.9006
O -9.11218  -7.49001  -13.9006
C 8.39015  10.913  14.8571
O -9.60985  -7.08698  -14.8571
C 7.52391  11.6889  15.78
O -10.4761  -6.31107  -15.78
C 5.62872  13.4965  16.6006
O -12.3713  -4.5035  -16.6006
C 1.03893  18  17.0161
O -16.9611  -0  -17.0161
C -3.55087  -13.4965  16.6006
O 14.4491  4.5035  -16.6006
C -5.44605  -11.6889  15.78
O 12.5539  6.31107  -15.78
C -6.31229  -10.913  14.8571
O 11.6877  7.08698  -14.8571
C -6.80997  -10.51  13.9006
O 11.19  7.49001  -13.9006
C -7.14507  -10.2757  12.9296
O 10.8549  7.7243  -12.9296
C -7.39761  -10.1325  11.9515
O 10.6024  7.86754  -11.9515
C -7.60517  -10.0457  10.9694
O 10.3948  7.95428  -10.9694
C -7.78848  -9.9988  9.98514
O 10.2115  8.0012  -9.98514
C -7.96107  -9.98393  9
O 10.0389  8.01607  -9
C -8.13366  -9.9988  8.01486
O 9.86634  8.0012  -8.01486
C -8.31698  -10.0457  7.03064
O 9.68302  7.95428  -7.03064
C -8.52453  -10.1325  6.04854
O 9.47547  7.86754  -6.04854
C -8.77707  -10.2757  5.07036
O 9.22293  7.7243  -5.07036
C -9.11218  -10.51  4.09941
O 8.88782  7.49001  -4.09941
C -9.60985  -10.913  3.1429
O 8.39015  7.08698  -3.1429
C -10.4761  -11.6889  2.22
O 7.52391  6.31107  -2.22
C -12.3713  -13.4965  1.39937
O 5.62872  4.5035  -1.39937
C -16.9611  -18  0.983928
O 1.03893  0  -0.983928
C -16.9124  18  1.96685
O 1.08764  -0  -1.96685
C 16.3227  15.4089  2.19746
O -1.67728  -2.59115  -2.19746
C 14.3637  13.6262  2.77649
O -3.63628  -4.37377  -2.77649
C 13.1117  12.556  3.53634
O -4.88827  -5.44404  -3.53634
C 12.2733  11.9077  4.38339
O -5.7267  -6.09231  -4.38339
C 11.6647  11.5013  5.27507
O -6.33527  -6.49865  -5.27507
C 11.1873  11.2427  6.1912
O -6.81267  -6.75727  -6.1912
C 10.7861  11.0825  7.12121
O -7.21394  -6.91746  -7.12121
C 10.4273  10.9948  8.05889
O -7.57272  -7.00518  -8.05889
C 10.0876  10.9669  9
O -7.91236  -7.03315  -9
C 9.748  10.9948  9.94111
O -8.252  -7.00518  -9.94111
C 9.38923  11.0825  10.8788
O -8.61077  -6.91746  -10.8788
C 8.98796  11.2427  11.8088
O -9.01204  -6.75727  -11.8088
C 8.51056  11.5013  12.7249
O -9.48944  -6.49865  -12.7249
C 7.90198  11.9077  13.6166
O -10.098  -6.09231  -13.6166
C 7.06355  12.556  14.4637
O -10.9364  -5.44404  -14.4637
C 5.81156  13.6262  15.2235
O -12.1884  -4.37377  -15.2235
C 3.85257  15.4089  15.8025
O -14.1474  -2.59115  -15.8025
C 1.08764  18  16.0331
O -16.9124  -0  -16.0331
C -1.67728  -15.4089  15.8025
O 16.3227  2.59115  -15.8025
C -3.63628  -13.6262  15.2235
O 14.3637  4.37377  -15.2235
C -4.88827  -12.556  14.4637
O 13.1117  5.44404  -14.4637
C -5.7267  -11.9077  13.6166
O 12.2733  6.09231  -13.6166
C -6.33527  -11.5013  12.7249
O 11.6647  6.49865  -12.7249
C -6.81267  -11.2427  11.8088
O 11.1873  6.75727  -11.8088
C -7.21394  -11.0825  10.8788
O 10.7861  6.91746  -10.8788
C -7.57272  -10.9948  9.94111
O 10.4273  7.00518  -9.94111
C -7.91236  -10.9669  9
O 10.0876  7.03315  -9
C -8.252  -10.9948  8.05889
O 9.748  7.00518  -8.05889
C -8.61077  -11.0825  7.12121
O 9.38923  6.91746  -7.12121
C -9.01204  -11.2427  6.1912
O 8.98796  6.75727  -6.1912
C -9.48944  -11.5013  5.27507
O 8.51056  6.49865  -5.27507
C -10.098  -11.9077  4.38339
O 7.90198  6.09231  -4.38339
C -10.9364  -12.556  3.53634
O 7.06355  5.44404  -3.53634
C -12.1884  -13.6262  2.77649
O 5.81156  4.37377  -2.77649
C -14.1474  -15.4089  2.19746
O 3.85257  2.59115  -2.19746
C -16.9124  -18  1.96685
O 1.08764  0  -1.96685
C -16.8223  18  2.9475
O 1.17768  -0  -2.9475
C 17.2061  16.2921  3.09803
O -0.79387  -1.70788  -3.09803
C 15.5286  14.882  3.51081
O -2.4714  -3.11796  -3.51081
C 14.2216  13.8503  4.10675
O -3.77841  -4.14975  -4.10675
C 13.2164  13.1325  4.81721
O -4.78361  -4.86751  -4.81721
C 12.4211  12.642  5.59724
O -5.57888  -5.35796  -5.59724
C 11.7636  12.313  6.41966
O -6.23644  -5.68702  -6.41966
C 11.193  12.1026  7.26773
O -6.80698  -5.89743  -7.26773
C 10.6735  11.9852  8.13051
O -7.32646  -6.01478  -8.13051
C 10.1777  11.9475  9
O -7.82232  -6.0525  -9
C 9.68182  11.9852  9.86949
O -8.31818  -6.01478  -9.86949
C 9.16233  12.1026  10.7323
O -8.83767  -5.89743  -10.7323
C 8.59179  12.313  11.5803
O -9.40821  -5.68702  -11.5803
C 7.93423  12.642  12.4028
O -10.0658  -5.35796  -12.4028
C 7.13896  13.1325  13.1828
O -10.861  -4.86751  -13.1828
C 6.13376  13.8503  13.8932
O -11.8662  -4.14975  -13.8932
C 4.82675  14.882  14.4892
O -13.1733  -3.11796  -14.4892
C 3.14922  16.2921  14.902
O -14.8508  -1.70788  -14.902
C 1.17768  18  15.0525
O -16.8223  -0  -15.0525
C -0.79387  -16.2921  14.902
O 17.2061  1.70788  -14.902
C -2.4714  -14.882  14.4892
O 15.5286  3.11796  -14.4892
C -3.77841  -13.8503  13.8932
O 14.2216  4.14975  -13.8932
C -4.78361  -13.1325  13.1828
O 13.2164  4.86751  -13.1828
C -5.57888  -12.642  12.4028
O 12.4211  5.35796  -12.4028
C -6.23644  -12.313  11.5803
O 11.7636  5.68702  -11.5803
C -6.80698  -12.1026  10.7323
O 11.193  5.89743  -10.7323
C -7.32646  -11.9852  9.86949
O 10.6735  6.01478  -9.86949
C -7.82232  -11.9475  9
O 10.1777  6.0525  -9
C -8.31818  -11.9852  8.13051
O 9.68182  6.01478  -8.13051
C -8.83767  -12.1026  7.26773
O 9.16233  5.89743  -7.26773
C -9.40821  -12.313  6.41966
O 8.59179  5.68702  -6.41966
C -10.0658  -12.642  5.59724
O 7.93423  5.35796  -5.59724
C -10.861  -13.1325  4.81721
O 7.13896  4.86751  -4.81721
C -11.8662  -13.8503  4.10675
O 6.13376  4.14975  -4.10675
C -13.1733  -14.882  3.51081
O 4.82675  3.11796  -3.51081
C -14.8508  -16.2921  3.09803
O 3.14922  1.70788  -3.09803
C -16.8223  -18  2.9475
O 1.17768  0  -2.9475
C -16.6738  18  3.92392
O 1.32625  -0  -3.92392
C 17.7687  16.7997  4.02932
O -0.231343  -1.20033  -4.02932
C 16.3347  15.7277  4.32975
O -1.66533  -2.27226  -4.32975
C 15.0875  14.8525  4.78753
O -2.91249  -3.14752  -4.78753
C 14.0273  14.1796  5.36077
O -3.97265  -3.8204  -5.36077
C 13.1221  13.6834  6.01424
O -4.8779  -4.31662  -6.01424
C 12.3325  13.3322  6.72161
O -5.66749  -4.66783  -6.72161
C 11.6228  13.0995  7.46391
O -6.37721  -4.90049  -7.46391
C 10.9627  12.967  8.22707
O -7.03732  -5.03304  -8.22707
C 10.3262  12.9239  9
O -7.67375  -5.07608  -9
C 9.68982  12.967  9.77293
O -8.31018  -5.03304  -9.77293
C 9.0297  13.0995  10.5361
O -8.9703  -4.90049  -10.5361
C 8.31999  13.3322  11.2784
O -9.68001  -4.66783  -11.2784
C 7.5304  13.6834  11.9858
O -10.4696  -4.31662  -11.9858
C 6.62515  14.1796  12.6392
O -11.3749  -3.8204  -12.6392
C 5.56498  14.8525  13.2125
O -12.435  -3.14752  -13.2125
C 4.31783  15.7277  13.6703
O -13.6822  -2.27226  -13.6703
C 2.88384  16.7997  13.9707
O -15.1162  -1.20033  -13.9707
C 1.32625  18  14.0761
O -16.6738  -0  -14.0761
C -0.231343  -16.7997  13.9707
O 17.7687  1.20033  -13.9707
C -1.66533  -15.7277  13.6703
O 16.3347  2.27226  -13.6703
C -2.91249  -14.8525  13.2125
O 15.0875  3.14752  -13.2125
C -3.97265  -14.1796  12.6392
O 14.0273  3.8204  -12.6392
C -4.8779  -13.6834  11.9858
O 13.1221  4.31662  -11.9858
C -5.66749  -13.3322  11.2784
O 12.3325  4.66783  -11.2784
C -6.37721  -13.0995  10.5361
O 11.6228  4.90049  -10.5361
C -7.03732  -12.967  9.77293
O 10.9627  5.03304  -9.77293
C -7.67375  -12.9239  9
O 10.3262  5.07608  -9
C -8.31018  -12.967  8.22707
O 9.68982  5.03304  -8.22707
C -8.9703  -13.0995  7.46391
O 9.0297  4.90049  -7.46391
C -9.68001  -13.3322  6.72161
O 8.31999  4.66783  -6.72161
C -10.4696  -13.6834  6.01424
O 7.5304  4.31662  -6.01424
C -11.3749  -14.1796  5.36077
O 6.62515  3.8204  -5.36077
C -12.435  -14.8525  4.78753
O 5.56498  3.14752  -4.78753
C -13.6822  -15.7277  4.32975
O 4.31783  2.27226  -4.32975
C -15.1162  -16.7997  4.02932
O 2.88384  1.20033  -4.02932
C -16.6738  -18  3.92392
O 1.32625  0  -3.92392
C -16.431  18  4.89254
O 1.56898  -8.53774e-08  -4.89254
C -17.7475  17.1394  4.96798
O 0.252493  -0.860625  -4.96798
C 16.9918  16.3401  5.18723
O -1.0082  -1.65991  -5.18723
C 15.8243  15.6453  5.53185
O -2.17574  -2.3547  -5.53185
C 14.7627  15.0741  5.97799
O -3.23734  -2.92592  -5.97799
C 13.8006  14.627  6.50177
O -4.19945  -3.37296  -6.50177
C 12.921  14.2954  7.0821
O -5.07897  -3.70457  -7.0821
C 12.1033  14.0682  7.70135
O -5.8967  -3.93179  -7.70135
C 11.3261  13.9359  8.34486
O -6.67386  -4.06406  -8.34486
C 10.569  13.8925  9
O -7.43102  -4.10746  -9
C 9.81181  13.9359  9.65514
O -8.18819  -4.06406  -9.65514
C 9.03465  14.0682  10.2986
O -8.96535  -3.93179  -10.2986
C 8.21692  14.2954  10.9179
O -9.78308  -3.70457  -10.9179
C 7.3374  14.627  11.4982
O -10.6626  -3.37296  -11.4982
C 6.37529  15.0741  12.022
O -11.6247  -2.92592  -12.022
C 5.3137  15.6453  12.4681
O -12.6863  -2.3547  -12.4681
C 4.14616  16.3401  12.8128
O -13.8538  -1.65991  -12.8128
C 2.88546  17.1394  13.032
O -15.1145  -0.860625  -13.032
C 1.56898  -18  13.1075
O -16.431  0  -13.1075
C 0.252493  -17.1394  13.032
O -17.7475  0.860625  -13.032
C -1.0082  -16.3401  12.8128
O 16.9918  1.65991  -12.8128
C -2.17574  -15.6453  12.4681
O 15.8243  2.3547  -12.4681
C -3.23734  -15.0741  12.022
O 14.7627  2.92592  -12.022
C -4.19945  -14.627  11.4982
O 13.8006  3.37296  -11.4982
C -5.07897  -14.2954  10.9179
O 12.921  3.70457  -10.9179
C -5.8967  -14.0682  10.2986
O 12.1033  3.93179  -10.2986
C -6.67386  -13.9359  9.65514
O 11.3261  4.06406  -9.65514
C -7.43102  -13.8925  9
O 10.569  4.10746  -9
C -8.18819  -13.9359  8.34486
O 9.81181  4.06406  -8.34486
C -8.96535  -14.0682  7.70135
O 9.03465  3.93179  -7.70135
C -9.78308  -14.2954  7.0821
O 8.21692  3.70457  -7.0821
C -10.6626  -14.627  6.50177
O 7.3374  3.37296  -6.50177
C -11.6247  -15.0741  5.97799
O 6.37529  2.92592  -5.97799
C -12.6863  -15.6453  5.53185
O 5.3137  2.3547  -5.53185
C -13.8538  -16.3401  5.18723
O 4.14616  1.65991  -5.18723
C -15.1145  -17.1394  4.96798
O 2.88546  0.860625  -4.96798
C -16.431  18  4.89254
O 1.56898  -8.53774e-08  -4.89254
C -16.0145  18  5.84567
O 1.98552  -0  -5.84567
C -17.1834  17.3916  5.89895
O 0.816582  -0.608432  -5.89895
C 17.6729  16.8143  6.05546
O -0.327077  -1.18568  -6.05546
C 16.574  16.2938  6.30601
O -1.42603  -1.70623  -6.30601
C 15.5301  15.8467  6.63749
O -2.46995  -2.15327  -6.63749
C 14.5424  15.4816  7.03502
O -3.45755  -2.51843  -7.03502
C 13.6054  15.2005  7.48367
O -4.39456  -2.79952  -7.48367
C 12.7089  15.0023  7.96928
O -5.29113  -2.99773  -7.96928
C 11.8401  14.8846  8.47879
O -6.15987  -3.11536  -8.47879
C 10.9855  14.8457  9
O -7.01448  -3.15433  -9
C 10.1309  14.8846  9.52121
O -7.86909  -3.11536  -9.52121
C 9.26217  15.0023  10.0307
O -8.73783  -2.99773  -10.0307
C 8.3656  15.2005  10.5163
O -9.6344  -2.79952  -10.5163
C 7.42859  15.4816  10.965
O -10.5714  -2.51843  -10.965
C 6.44099  15.8467  11.3625
O -11.559  -2.15327  -11.3625
C 5.39707  16.2938  11.694
O -12.6029  -1.70623  -11.694
C 4.29812  16.8143  11.9445
O -13.7019  -1.18568  -11.9445
C 3.15446  17.3916  12.101
O -14.8455  -0.608432  -12.101
C 1.98552  18  12.1543
O -16.0145  -0  -12.1543
C 0.816582  -17.3916  12.101
O -17.1834  0.608432  -12.101
C -0.327077  -16.8143  11.9445
O 17.6729  1.18568  -11.9445
C -1.42603  -16.2938  11.694
O 16.574  1.70623  -11.694
C -2.46995  -15.8467  11.3625
O 15.5301  2.15327  -11.3625
C -3.45755  -15.4816  10.965
O 14.5424  2.51843  -10.965
C -4.39456  -15.2005  10.5163
O 13.6054  2.79952  -10.5163
C -5.29113  -15.0023  10.0307
O 12.7089  2.99773  -10.0307
C -6.15987  -14.8846  9.52121
O 11.8401  3.11536  -9.52121
C -7.01448  -14.8457  9
O 10.9855  3.15433  -9
C -7.86909  -14.8846  8.47879
O 10.1309  3.11536  -8.47879
C -8.73783  -15.0023  7.96928
O 9.26217  2.99773  -7.96928
C -9.6344  -15.2005  7.48367
O 8.3656  2.79952  -7.48367
C -10.5714  -15.4816  7.03502
O 7.42859  2.51843  -7.03502
C -11.559  -15.8467  6.63749
O 6.44099  2.15327  -6.63749
C -12.6029  -16.2938  6.30601
O 5.39707  1.70623  -6.30601
C -13.7019  -16.8143  6.05546
O 4.29812  1.18568  -6.05546
C -14.8455  -17.3916  5.89895
O 3.15446  0.608432  -5.89895
C -16.0145  -18  5.84567
O 1.98552  0  -5.84567
C -15.217  18  6.76292
O 2.783  -0  -6.76292
C -16.2965  17.5912  6.7987
O 1.70346  -0.408793  -6.7987
C -17.3654  17.1987  6.90443
O 0.634578  -0.801269  -6.90443
C 17.5852  16.8372  7.0755
O -0.414812  -1.16284  -7.0755
C 16.561  16.5182  7.30489
O -1.43903  -1.48184  -7.30489
C 15.564  16.2501  7.58392
O -2.43604  -1.74992  -7.58392
C 14.5928  16.0382  7.90297
O -3.40723  -1.96178  -7.90297
C 13.6432  15.8856  8.25204
O -4.35679  -2.11441  -8.25204
C 12.7091  15.7936  8.62105
O -5.29091  -2.20638  -8.62105
C 11.783  15.7629  9
O -6.217  -2.23708  -9
C 10.8569  15.7936  9.37895
O -7.1431  -2.20638  -9.37895
C 9.92279  15.8856  9.74796
O -8.07721  -2.11441  -9.74796
C 8.97323  16.0382  10.097
O -9.02677  -1.96178  -10.097
C 8.00203  16.2501  10.4161
O -9.99797  -1.74992  -10.4161
C 7.00503  16.5182  10.6951
O -10.995  -1.48184  -10.6951
C 5.98081  16.8372  10.9245
O -12.0192  -1.16284  -10.9245
C 4.93142  17.1987  11.0956
O -13.0686  -0.801269  -11.0956
C 3.86254  17.5912  11.2013
O -14.1375  -0.408793  -11.2013
C 2.783  18  11.2371
O -15.217  -0  -11.2371
C 1.70346  -17.5912  11.2013
O -16.2965  0.408793  -11.2013
C 0.634578  -17.1987  11.0956
O -17.3654  0.801269  -11.0956
C -0.414812  -16.8372  10.9245
O 17.5852  1.16284  -10.9245
C -1.43903  -16.5182  10.6951
O 16.561  1.48184  -10.6951
C -2.43604  -16.2501  10.4161
O 15.564  1.74992  -10.4161
C -3.40723  -16.0382  10.097
O 14.5928  1.96178  -10.097
C -4.35679  -15.8856  9.74796
O 13.6432  2.11441  -9.74796
C -5.29091  -15.7936  9.37895
O 12.7091  2.20638  -9.37895
C -6.217  -15.7629  9
O 11.783  2.23708  -9
C -7.1431  -15.7936  8.62105
O 10.8569  2.20638  -8.62105
C -8.07721  -15.8856  8.25204
O 9.92279  2.11441  -8.25204
C -9.02677  -16.0382  7.90297
O 8.97323  1.96178  -7.90297
C -9.99797  -16.2501  7.58392
O 8.00203  1.74992  -7.58392
C -10.995  -16.5182  7.30489
O 7.00503  1.48184  -7.30489
C -12.0192  -16.8372  7.0755
O 5.98081  1.16284  -7.0755
C -13.0686  -17.1987  6.90443
O 4.93142  0.801269  -6.90443
C -14.1375  -17.5912  6.7987
O 3.86254  0.408793  -6.7987
C -15.217  18  6.76292
O 2.783  -0  -6.76292
C -13.3883  18  7.57282
O 4.61172  -0  -7.57282
C -14.4195  17.7471  7.59496
O 3.58055  -0.252918  -7.59496
C -15.4467  17.5028  7.66055
O 2.5533  -0.497223  -7.66055
C -16.4667  17.2752  7.76728
O 1.53334  -0.72483  -7.76728
C -17.477  17.0714  7.91145
O 0.523048  -0.92861  -7.91145
C 17.5235  16.8974  8.08824
O -0.476471  -1.10265  -8.08824
C 16.5346  16.7577  8.29197
O -1.46544  -1.24234  -8.29197
C 15.5547  16.6557  8.51633
O -2.44532  -1.34432  -8.51633
C 14.5815  16.5936  8.75465
O -3.41855  -1.40636  -8.75465
C 13.6117  16.5728  9
O -4.38828  -1.42718  -9
C 12.642  16.5936  9.24535
O -5.35801  -1.40636  -9.24535
C 11.6688  16.6557  9.48367
O -6.33125  -1.34432  -9.48367
C 10.6889  16.7577  9.70803
O -7.31112  -1.24234  -9.70803
C 9.69991  16.8974  9.91176
O -8.30009  -1.10265  -9.91176
C 8.70039  17.0714  10.0885
O -9.29961  -0.92861  -10.0885
C 7.6901  17.2752  10.2327
O -10.3099  -0.72483  -10.2327
C 6.67014  17.5028  10.3394
O -11.3299  -0.497223  -10.3394
C 5.64289  17.7471  10.405
O -12.3571  -0.252918  -10.405
C 4.61172  18  10.4272
O -13.3883  -0  -10.4272
C 3.58055  -17.7471  10.405
O -14.4195  0.252918  -10.405
C 2.5533  -17.5028  10.3394
O -15.4467  0.497223  -10.3394
C 1.53334  -17.2752  10.2327
O -16.4667  0.72483  -10.2327
C 0.523048  -17.0714  10.0885
O -17.477  0.92861  -10.0885
C -0.476471  -16.8974  9.91176
O 17.5235  1.10265  -9.91176
C -1.46544  -16.7577  9.70803
O 16.5346  1.24234  -9.70803
C -2.44532  -16.6557  9.48367
O 15.5547  1.34432  -9.48367
C -3.41855  -16.5936  9.24535
O 14.5815  1.40636  -9.24535
C -4.38828  -16.5728  9
O 13.6117  1.42718  -9
C -5.35801  -16.5936  8.75465
O 12.642  1.40636  -8.75465
C -6.33125  -16.6557  8.51633
O 11.6688  1.34432  -8.51633
C -7.31112  -16.7577  8.29197
O 10.6889  1.24234  -8.29197
C -8.30009  -16.8974  8.08824
O 9.69991  1.10265  -8.08824
C -9.29961  -17.0714  7.91145
O 8.70039  0.92861  -7.91145
C -10.3099  -17.2752  7.76728
O 7.6901  0.72483  -7.76728
C -11.3299  -17.5028  7.66055
O 6.67014  0.497223  -7.66055
C -12.3571  -17.7471  7.59496
O 5.64289  0.252918  -7.59496
C -13.3883  18  7.57282
O 4.61172  -0  -7.57282
C -9  18  7.97652
O 9  -0  -7.97652
C -10.0158  17.8204  7.99223
O 7.98416  -0.179581  -7.99223
C -11.0297  17.6466  8.03885
O 6.97028  -0.353373  -8.03885
C -12.04  17.4841  8.11483
O 5.96005  -0.515855  -8.11483
C -13.0453  17.338  8.2177
O 4.95469  -0.662007  -8.2177
C -14.0452  17.2125  8.34418
O 3.95481  -0.787482  -8.34418
C -15.0396  17.1113  8.49031
O 2.96037  -0.888713  -8.49031
C -16.0294  17.0371  8.65159
O 1.97064  -0.962948  -8.65159
C -17.0156  16.9917  8.82319
O 0.984402  -1.00825  -8.82319
C 18  16.9765  9
O -0  -1.02348  -9
C 17.0156  16.9917  9.17681
O -0.984402  -1.00825  -9.17681
C 16.0294  17.0371  9.34841
O -1.97064  -0.962948  -9.34841
C 15.0396  17.1113  9.50969
O -2.96037  -0.888713  -9.50969
C 14.0452  17.2125  9.65582
O -3.95481  -0.787482  -9.65582
C 13.0453  17.338  9.7823
O -4.95469  -0.662007  -9.7823
C 12.04  17.4841  9.88517
O -5.96005  -0.515855  -9.88517
C 11.0297  17.6466  9.96115
O -6.97028  -0.353373  -9.96115
C 10.0158  17.8204  10.0078
O -7.98416  -0.179581  -10.0078
C 9  18  10.0235
O -9  -0  -10.0235
C 7.98416  -17.8204  10.0078
O -10.0158  0.179581  -10.0078
C 6.97028  -17.6466  9.96115
O -11.0297  0.353373  -9.96115
C 5.96005  -17.4841  9.88517
O -12.04  0.515855  -9.88517
C 4.95469  -17.338  9.7823
O -13.0453  0.662007  -9.7823
C 3.95481  -17.2125  9.65582
O -14.0452  0.787482  -9.65582
C 2.96037  -17.1113  9.50969
O -15.0396  0.888713  -9.50969
C 1.97064  -17.0371  9.34841
O -16.0294  0.962948  -9.34841
C 0.984402  -16.9917  9.17681
O -17.0156  1.00825  -9.17681
C -0  -16.9765  9
O 18  1.02348  -9
C -0.984402  -16.9917  8.82319
O 17.0156  1.00825  -8.82319
C -1.97064  -17.0371  8.65159
O 16.0294  0.962948  -8.65159
C -2.96037  -17.1113  8.49031
O 15.0396  0.888713  -8.49031
C -3.95481  -17.2125  8.34418
O 14.0452  0.787482  -8.34418
C -4.95469  -17.338  8.2177
O 13.0453  0.662007  -8.2177
C -5.96005  -17.4841  8.11483
O 12.04  0.515855  -8.11483
C -6.97028  -17.6466  8.03885
O 11.0297  0.353373  -8.03885
C -7.98416  -17.8204  7.99223
O 10.0158  0.179581  -7.99223
C -9  18  7.97652
O 9  -0  -7.97652
C -4.61172  18  7.57282
O 13.3883  -0  -7.57282
C -5.64289  17.7471  7.59496
O 12.3571  -0.252918  -7.59496
C -6.67014  17.5028  7.66055
O 11.3299  -0.497223  -7.66055
C -7.6901  17.2752  7.76728
O 10.3099  -0.72483  -7.76728
C -8.70039  17.0714  7.91145
O 9.29961  -0.92861  -7.91145
C -9.69991  16.8974  8.08824
O 8.30009  -1.10265  -8.08824
C -10.6889  16.7577  8.29197
O 7.31112  -1.24234  -8.29197
C -11.6688  16.6557  8.51633
O 6.33125  -1.34432  -8.51633
C -12.642  16.5936  8.75465
O 5.35801  -1.40636  -8.75465
C -13.6117  16.5728  9
O 4.38828  -1.42718  -9
C -14.5815  16.5936  9.24535
O 3.41855  -1.40636  -9.24535
C -15.5547  16.6557  9.48367
O 2.44532  -1.34432  -9.48367
C -16.5346  16.7577  9.70803
O 1.46544  -1.24234  -9.70803
C -17.5235  16.8974  9.91176
O 0.476471  -1.10265  -9.91176
C 17.477  17.0714  10.0885
O -0.523048  -0.92861  -10.0885
C 16.4667  17.2752  10.2327
O -1.53334  -0.72483  -10.2327
C 15.4467  17.5028  10.3394
O -2.5533  -0.497223  -10.3394
C 14.4195  17.7471  10.405
O -3.58055  -0.252918  -10.405
C 13.3883  18  10.4272
O -4.61172  -0  -10.4272
C 12.3571  -17.7471  10.405
O -5.64289  0.252918  -10.405
C 11.3299  -17.5028  10.3394
O -6.67014  0.497223  -10.3394
C 10.3099  -17.2752  10.2327
O -7.6901  0.72483  -10.2327
C 9.29961  -17.0714  10.0885
O -8.70039  0.92861  -10.0885
C 8.30009  -16.8974  9.91176
O -9.69991  1.10265  -9.91176
C 7.31112  -16.7577  9.70803
O -10.6889  1.24234  -9.70803
C 6.33125  -16.6557  9.48367
O -11.6688  1.34432  -9.48367
C 5.35801  -16.5936  9.24535
O -12.642  1.40636  -9.24535
C 4.38828  -16.5728  9
O -13.6117  1.42718  -9
C 3.41855  -16.5936  8.75465
O -14.5815  1.40636  -8.75465
C 2.44532  -16.6557  8.51633
O -15.5547  1.34432  -8.51633
C 1.46544  -16.7577  8.29197
O -16.5346  1.24234  -8.29197
C 0.476471  -16.8974  8.08824
O -17.5235  1.10265  -8.08824
C -0.523048  -17.0714  7.91145
O 17.477  0.92861  -7.91145
C -1.53334  -17.2752  7.76728
O 16.4667  0.72483  -7.76728
C -2.5533  -17.5028  7.66055
O 15.4467  0.497223  -7.66055
C -3.58055  -17.7471  7.59496
O 14.4195  0.252918  -7.59496
C -4.61172  18  7.57282
O 13.3883  -0  -7.57282
C -2.783  18  6.76292
O 15.217  -0  -6.76292
C -3.86254  17.5912  6.7987
O 14.1375  -0.408793  -6.7987
C -4.93142  17.1987  6.90443
O 13.0686  -0.801269  -6.90443
C -5.98081  16.8372  7.0755
O 12.0192  -1.16284  -7.0755
C -7.00503  16.5182  7.30489
O 10.995  -1.48184  -7.30489
C -8.00203  16.2501  7.58392
O 9.99797  -1.74992  -7.58392
C -8.97323  16.0382  7.90297
O 9.02677  -1.96178  -7.90297
C -9.92279  15.8856  8.25204
O 8.07721  -2.11441  -8.25204
C -10.8569  15.7936  8.62105
O 7.1431  -2.20638  -8.62105
C -11.783  15.7629  9
O 6.217  -2.23708  -9
C -12.7091  15.7936  9.37895
O 5.29091  -2.20638  -9.37895
C -13.6432  15.8856  9.74796
O 4.35679  -2.11441  -9.74796
C -14.5928  16.0382  10.097
O 3.40723  -1.96178  -10.097
C -15.564  16.2501  10.4161
O 2.43604  -1.74992  -10.4161
C -16.561  16.5182  10.6951
O 1.43903  -1.48184  -10.6951
C -17.5852  16.8372  10.9245
O 0.414812  -1.16284  -10.9245
C 17.3654  17.1987  11.0956
O -0.634578  -0.801269  -11.0956
C 16.2965  17.5912  11.2013
O -1.70346  -0.408793  -11.2013
C 15.217  18  11.2371
O -2.783  -0  -11.2371
C 14.1375  -17.5912  11.2013
O -3.86254  0.408793  -11.2013
C 13.0686  -17.1987  11.0956
O -4.93142  0.801269  -11.0956
C 12.0192  -16.8372  10.9245
O -5.98081  1.16284  -10.9245
C 10.995  -16.5182  10.6951
O -7.00503  1.48184  -10.6951
C 9.99797  -16.2501  10.4161
O -8.00203  1.74992  -10.4161
C 9.02677  -16.0382  10.097
O -8.97323  1.96178  -10.097
C 8.07721  -15.8856  9.74796
O -9.92279  2.11441  -9.74796
C 7.1431  -15.7936  9.37895
O -10.8569  2.20638  -9.37895
C 6.217  -15.7629  9
O -11.783  2.23708  -9
C 5.29091  -15.7936  8.62105
O -12.7091  2.20638  -8.62105
C 4.35679  -15.8856  8.25204
O -13.6432  2.11441  -8.25204
C 3.40723  -16.0382  7.90297
O -14.5928  1.96178  -7.90297
C 2.43604  -16.2501  7.58392
O -15.564  1.74992  -7.58392
C 1.43903  -16.5182  7.30489
O -16.561  1.48184  -7.30489
C 0.414812  -16.8372  7.0755
O -17.5852  1.16284  -7.0755
C -0.634578  -17.1987  6.90443
O 17.3654  0.801269  -6.90443
C -1.70346  -17.5912  6.7987
O 16.2965  0.408793  -6.7987
C -2.783  18  6.76292
O 15.217  -0  -6.76292
C -1.98552  18  5.84567
O 16.0145  -8.53774e-08  -5.84567
C -3.15446  17.3916  5.89895
O 14.8455  -0.608432  -5.89895
C -4.29812  16.8143  6.05546
O 13.7019  -1.18568  -6.05546
C -5.39707  16.2938  6.30601
O 12.6029  -1.70623  -6.30601
C -6.44099  15.8467  6.63749
O 11.559  -2.15327  -6.63749
C -7.4286  15.4816  7.03502
O 10.5714  -2.51843  -7.03502
C -8.3656  15.2005  7.48367
O 9.6344  -2.79952  -7.48367
C -9.26217  15.0023  7.96928
O 8.73783  -2.99773  -7.96928
C -10.1309  14.8846  8.47879
O 7.86909  -3.11536  -8.47879
C -10.9855  14.8457  9
O 7.01448  -3.15433  -9
C -11.8401  14.8846  9.52121
O 6.15987  -3.11536  -9.52121
C -12.7089  15.0023  10.0307
O 5.29113  -2.99773  -10.0307
C -13.6054  15.2005  10.5163
O 4.39456  -2.79952  -10.5163
C -14.5424  15.4816  10.965
O 3.45755  -2.51843  -10.965
C -15.5301  15.8467  11.3625
O 2.46995  -2.15327  -11.3625
C -16.574  16.2938  11.694
O 1.42603  -1.70623  -11.694
C -17.6729  16.8143  11.9445
O 0.327077  -1.18568  -11.9445
C 17.1834  17.3916  12.101
O -0.816582  -0.608432  -12.101
C 16.0145  -18  12.1543
O -1.98552  8.53774e-08  -12.1543
C 14.8455  -17.3916  12.101
O -3.15446  0.608432  -12.101
C 13.7019  -16.8143  11.9445
O -4.29812  1.18568  -11.9445
C 12.6029  -16.2938  11.694
O -5.39707  1.70623  -11.694
C 11.559  -15.8467  11.3625
O -6.44099  2.15327  -11.3625
C 10.5714  -15.4816  10.965
O -7.4286  2.51843  -10.965
C 9.6344  -15.2005  10.5163
O -8.3656  2.79952  -10.5163
C 8.73783  -15.0023  10.0307
O -9.26217  2.99773  -10.0307
C 7.86909  -14.8846  9.52121
O -10.1309  3.11536  -9.52121
C 7.01448  -14.8457  9
O -10.9855  3.15433  -9
C 6.15987  -14.8846  8.47879
O -11.8401  3.11536  -8.47879
C 5.29113  -15.0023  7.96928
O -12.7089  2.99773  -7.96928
C 4.39456  -15.2005  7.48367
O -13.6054  2.79952  -7.48367
C 3.45755  -15.4816  7.03502
O -14.5424  2.51843  -7.03502
C 2.46995  -15.8467  6.63749
O -15.5301  2.15327  -6.63749
C 1.42603  -16.2938  6.30601
O -16.574  1.70623  -6.30601
C 0.327077  -16.8143  6.05546
O -17.6729  1.18568  -6.05546
C -0.816582  -17.3916  5.89895
O 17.1834  0.608432  -5.89895
C -1.98552  18  5.84567
O 16.0145  -8.53774e-08  -5.84567
C -1.56898  18  4.89254
O 16.431  -8.53774e-08  -4.89254
C -2.88546  17.1394  4.96798
O 15.1145  -0.860625  -4.96798
C -4.14616  16.3401  5.18723
O 13.8538  -1.65991  -5.18723
C -5.3137  15.6453  5.53185
O 12.6863  -2.3547  -5.53185
C -6.37529  15.0741  5.97799
O 11.6247  -2.92592  -5.97799
C -7.3374  14.627  6.50177
O 10.6626  -3.37296  -6.50177
C -8.21692  14.2954  7.0821
O 9.78308  -3.70457  -7.0821
C -9.03465  14.0682  7.70135
O 8.96535  -3.93179  -7.70135
C -9.81181  13.9359  8.34486
O 8.18819  -4.06406  -8.34486
C -10.569  13.8925  9
O 7.43102  -4.10746  -9
C -11.3261  13.9359  9.65514
O 6.67386  -4.06406  -9.65514
C -12.1033  14.0682  10.2986
O 5.8967  -3.93179  -10.2986
C -12.921  14.2954  10.9179
O 5.07897  -3.70457  -10.9179
C -13.8006  14.627  11.4982
O 4.19944  -3.37296  -11.4982
C -14.7627  15.0741  12.022
O 3.23734  -2.92592  -12.022
C -15.8243  15.6453  12.4681
O 2.17574  -2.3547  -12.4681
C -16.9918  16.3401  12.8128
O 1.0082  -1.65991  -12.8128
C 17.7475  17.1394  13.032
O -0.252493  -0.860625  -13.032
C 16.431  -18  13.1075
O -1.56898  0  -13.1075
C 15.1145  -17.1394  13.032
O -2.88546  0.860625  -13.032
C 13.8538  -16.3401  12.8128
O -4.14616  1.65991  -12.8128
C 12.6863  -15.6453  12.4681
O -5.3137  2.3547  -12.4681
C 11.6247  -15.0741  12.022
O -6.37529  2.92592  -12.022
C 10.6626  -14.627  11.4982
O -7.3374  3.37296  -11.4982
C 9.78308  -14.2954  10.9179
O -8.21692  3.70457  -10.9179
C 8.96535  -14.0682  10.2986
O -9.03465  3.93179  -10.2986
C 8.18819  -13.9359  9.65514
O -9.81181  4.06406  -9.65514
C 7.43102  -13.8925  9
O -10.569  4.10746  -9
C 6.67386  -13.9359  8.34486
O -11.3261  4.06406  -8.34486
C 5.8967  -14.0682  7.70135
O -12.1033  3.93179  -7.70135
C 5.07897  -14.2954  7.0821
O -12.921  3.70457  -7.0821
C 4.19944  -14.627  6.50177
O -13.8006  3.37296  -6.50177
C 3.23734  -15.0741  5.97799
O -14.7627  2.92592  -5.97799
C 2.17574  -15.6453  5.53185
O -15.8243  2.3547  -5.53185
C 1.0082  -16.3401  5.18723
O -16.9918  1.65991  -5.18723
C -0.252493  -17.1394  4.96798
O 17.7475  0.860625  -4.96798
C -1.56898  18  4.89254
O 16.431  -8.53774e-08  -4.89254
C -1.32625  18  3.92392
O 16.6738  -0  -3.92392
C -2.88384  16.7997  4.02932
O 15.1162  -1.20033  -4.02932
C -4.31783  15.7277  4.32975
O 13.6822  -2.27226  -4.32975
C -5.56498  14.8525  4.78753
O 12.435  -3.14752  -4.78753
C -6.62515  14.1796  5.36077
O 11.3749  -3.8204  -5.36077
C -7.5304  13.6834  6.01424
O 10.4696  -4.31662  -6.01424
C -8.31999  13.3322  6.72161
O 9.68001  -4.66783  -6.72161
C -9.0297  13.0995  7.46391
O 8.9703  -4.90049  -7.46391
C -9.68982  12.967  8.22707
O 8.31018  -5.03304  -8.22707
C -10.3262  12.9239  9
O 7.67375  -5.07608  -9
C -10.9627  12.967  9.77293
O 7.03732  -5.03304  -9.77293
C -11.6228  13.0995  10.5361
O 6.37721  -4.90049  -10.5361
C -12.3325  13.3322  11.2784
O 5.66749  -4.66783  -11.2784
C -13.1221  13.6834  11.9858
O 4.8779  -4.31662  -11.9858
C -14.0273  14.1796  12.6392
O 3.97265  -3.8204  -12.6392
C -15.0875  14.8525  13.2125
O 2.91249  -3.14752  -13.2125
C -16.3347  15.7277  13.6703
O 1.66533  -2.27226  -13.6703
C -17.7687  16.7997  13.9707
O 0.231343  -1.20033  -13.9707
C 16.6738  18  14.0761