5192
ksi&psi trajectory with 10 & 10 deg step !! manualy cropped, in 10th degrees !!
U -18 -18 -10
W 18 - 18 - 10
F - 18 18 - 10
H - 18 - 18 10
B - 18 18 10
B 18 - 18 10
B 18 18 - 10
B 18 18 10
C 10.0235  0  0
O 10.0235  0  -0
C 10.0235  0  1
O -7.97652  -18  -1
C 10.0235  0  2
O -7.97652  -18  -2
C 10.0235  0  3
O -7.97652  -18  -3
C 10.0235  0  4
O -7.97652  -18  -4
C 10.0235  0  5
O -7.97652  -18  -5
C 10.0235  0  6
O -7.97652  -18  -6
C 10.0235  0  7
O -7.97652  -18  -7
C 10.0235  0  8
O -7.97652  -18  -8
C 10.0235  0  9
O -7.97652  -18  -9
C 10.0235  0  10
O -7.97652  -18  -10
C 10.0235  0  11
O -7.97652  -18  -11
C 10.0235  0  12
O -7.97652  -18  -12
C 10.0235  0  13
O -7.97652  -18  -13
C 10.0235  0  14
O -7.97652  -18  -14
C 10.0235  0  15
O -7.97652  -18  -15
C 10.0235  0  16
O -7.97652  -18  -16
C 10.0235  0  17
O -7.97652  -18  -17
C 10.0235  0  18
O 10.0235  0  -18
C -7.97652  18  17
O 10.0235  -0  -17
C -7.97652  18  16
O 10.0235  -0  -16
C -7.97652  18  15
O 10.0235  -0  -15
C -7.97652  18  14
O 10.0235  -0  -14
C -7.97652  18  13
O 10.0235  -0  -13
C -7.97652  18  12
O 10.0235  -0  -12
C -7.97652  18  11
O 10.0235  -0  -11
C -7.97652  18  10
O 10.0235  -0  -10
C -7.97652  18  9
O 10.0235  -0  -9
C -7.97652  18  8
O 10.0235  -0  -8
C -7.97652  18  7
O 10.0235  -0  -7
C -7.97652  18  6
O 10.0235  -0  -6
C -7.97652  18  5
O 10.0235  -0  -5
C -7.97652  18  4
O 10.0235  -0  -4
C -7.97652  18  3
O 10.0235  -0  -3
C -7.97652  18  2
O 10.0235  -0  -2
C -7.97652  18  1
O 10.0235  -0  -1
C 10.0235  0  0
O 10.0235  0  -0
C -16.9611  9  0.983928
O 1.03893  -9  -0.983928
C 14.4491  4.4965  1.39937
O -3.55087  -13.5035  -1.39937
C 12.5539  2.68893  2.22
O -5.44605  -15.3111  -2.22
C 11.6877  1.91302  3.1429
O -6.31229  -16.087  -3.1429
C 11.19  1.50999  4.09941
O -6.80997  -16.49  -4.09941
C 10.8549  1.2757  5.07036
O -7.14507  -16.7243  -5.07036
C 10.6024  1.13246  6.04854
O -7.39761  -16.8675  -6.04854
C 10.3948  1.04572  7.03064
O -7.60517  -16.9543  -7.03064
C 10.2115  0.998804  8.01486
O -7.78848  -17.0012  -8.01486
C 10.0389  0.983928  9
O -7.96107  -17.0161  -9
C 9.86634  0.998804  9.98514
O -8.13366  -17.0012  -9.98514
C 9.68302  1.04572  10.9694
O -8.31698  -16.9543  -10.9694
C 9.47547  1.13246  11.9515
O -8.52453  -16.8675  -11.9515
C 9.22293  1.2757  12.9296
O -8.77707  -16.7243  -12.9296
C 8.88782  1.50999  13.9006
O -9.11218  -16.49  -13.9006
C 8.39015  1.91302  14.8571
O -9.60985  -16.087  -14.8571
C 7.52391  2.68893  15.78
O -10.4761  -15.3111  -15.78
C 5.62872  4.4965  16.6006
O -12.3713  -13.5035  -16.6006
C 1.03893  9  17.0161
O -16.9611  -9  -17.0161
C -3.55087  13.5035  16.6006
O 14.4491  -4.4965  -16.6006
C -5.44605  15.3111  15.78
O 12.5539  -2.68893  -15.78
C -6.31229  16.087  14.8571
O 11.6877  -1.91302  -14.8571
C -6.80997  16.49  13.9006
O 11.19  -1.50999  -13.9006
C -7.14507  16.7243  12.9296
O 10.8549  -1.2757  -12.9296
C -7.39761  16.8675  11.9515
O 10.6024  -1.13246  -11.9515
C -7.60517  16.9543  10.9694
O 10.3948  -1.04572  -10.9694
C -7.78848  17.0012  9.98514
O 10.2115  -0.998804  -9.98514
C -7.96107  17.0161  9
O 10.0389  -0.983928  -9
C -8.13366  17.0012  8.01486
O 9.86634  -0.998804  -8.01486
C -8.31698  16.9543  7.03064
O 9.68302  -1.04572  -7.03064
C -8.52453  16.8675  6.04854
O 9.47547  -1.13246  -6.04854
C -8.77707  16.7243  5.07036
O 9.22293  -1.2757  -5.07036
C -9.11218  16.49  4.09941
O 8.88782  -1.50999  -4.09941
C -9.60985  16.087  3.1429
O 8.39015  -1.91302  -3.1429
C -10.4761  15.3111  2.22
O 7.52391  -2.68893  -2.22
C -12.3713  13.5035  1.39937
O 5.62872  -4.4965  -1.39937
C -16.9611  9  0.983928
O 1.03893  -9  -0.983928
C -16.9124  9  1.96685
O 1.08764  -9  -1.96685
C 16.3227  6.40885  2.19746
O -1.67728  -11.5911  -2.19746
C 14.3637  4.62623  2.77649
O -3.63628  -13.3738  -2.77649
C 13.1117  3.55596  3.53634
O -4.88827  -14.444  -3.53634
C 12.2733  2.90769  4.38339
O -5.7267  -15.0923  -4.38339
C 11.6647  2.50135  5.27507
O -6.33527  -15.4987  -5.27507
C 11.1873  2.24273  6.1912
O -6.81267  -15.7573  -6.1912
C 10.7861  2.08254  7.12121
O -7.21394  -15.9175  -7.12121
C 10.4273  1.99482  8.05889
O -7.57272  -16.0052  -8.05889
C 10.0876  1.96685  9
O -7.91236  -16.0331  -9
C 9.748  1.99482  9.94111
O -8.252  -16.0052  -9.94111
C 9.38923  2.08254  10.8788
O -8.61077  -15.9175  -10.8788
C 8.98796  2.24273  11.8088
O -9.01204  -15.7573  -11.8088
C 8.51056  2.50135  12.7249
O -9.48944  -15.4987  -12.7249
C 7.90198  2.90769  13.6166
O -10.098  -15.0923  -13.6166
C 7.06355  3.55596  14.4637
O -10.9364  -14.444  -14.4637
C 5.81156  4.62623  15.2235
O -12.1884  -13.3738  -15.2235
C 3.85257  6.40885  15.8025
O -14.1474  -11.5911  -15.8025
C 1.08764  9  16.0331
O -16.9124  -9  -16.0331
C -1.67728  11.5911  15.8025
O 16.3227  -6.40885  -15.8025
C -3.63628  13.3738  15.2235
O 14.3637  -4.62623  -15.2235
C -4.88827  14.444  14.4637
O 13.1117  -3.55596  -14.4637
C -5.7267  15.0923  13.6166
O 12.2733  -2.90769  -13.6166
C -6.33527  15.4987  12.7249
O 11.6647  -2.50135  -12.7249
C -6.81267  15.7573  11.8088
O 11.1873  -2.24273  -11.8088
C -7.21394  15.9175  10.8788
O 10.7861  -2.08254  -10.8788
C -7.57272  16.0052  9.94111
O 10.4273  -1.99482  -9.94111
C -7.91236  16.0331  9
O 10.0876  -1.96685  -9
C -8.252  16.0052  8.05889
O 9.748  -1.99482  -8.05889
C -8.61077  15.9175  7.12121
O 9.38923  -2.08254  -7.12121
C -9.01204  15.7573  6.1912
O 8.98796  -2.24273  -6.1912
C -9.48944  15.4987  5.27507
O 8.51056  -2.50135  -5.27507
C -10.098  15.0923  4.38339
O 7.90198  -2.90769  -4.38339
C -10.9364  14.444  3.53634
O 7.06355  -3.55596  -3.53634
C -12.1884  13.3738  2.77649
O 5.81156  -4.62623  -2.77649
C -14.1474  11.5911  2.19746
O 3.85257  -6.40885  -2.19746
C -16.9124  9  1.96685
O 1.08764  -9  -1.96685
C -16.8223  9  2.9475
O 1.17768  -9  -2.9475
C 17.2061  7.29212  3.09803
O -0.79387  -10.7079  -3.09803
C 15.5286  5.88204  3.51081
O -2.4714  -12.118  -3.51081
C 14.2216  4.85025  4.10675
O -3.77841  -13.1497  -4.10675
C 13.2164  4.13249  4.81721
O -4.78361  -13.8675  -4.81721
C 12.4211  3.64204  5.59724
O -5.57888  -14.358  -5.59724
C 11.7636  3.31298  6.41966
O -6.23644  -14.687  -6.41966
C 11.193  3.10257  7.26773
O -6.80698  -14.8974  -7.26773
C 10.6735  2.98522  8.13051
O -7.32646  -15.0148  -8.13051
C 10.1777  2.9475  9
O -7.82232  -15.0525  -9
C 9.68182  2.98522  9.86949
O -8.31818  -15.0148  -9.86949
C 9.16233  3.10257  10.7323
O -8.83767  -14.8974  -10.7323
C 8.59179  3.31298  11.5803
O -9.40821  -14.687  -11.5803
C 7.93423  3.64204  12.4028
O -10.0658  -14.358  -12.4028
C 7.13896  4.13249  13.1828
O -10.861  -13.8675  -13.1828
C 6.13376  4.85025  13.8932
O -11.8662  -13.1497  -13.8932
C 4.82675  5.88204  14.4892
O -13.1733  -12.118  -14.4892
C 3.14922  7.29212  14.902
O -14.8508  -10.7079  -14.902
C 1.17768  9  15.0525
O -16.8223  -9  -15.0525
C -0.79387  10.7079  14.902
O 17.2061  -7.29212  -14.902
C -2.4714  12.118  14.4892
O 15.5286  -5.88204  -14.4892
C -3.77841  13.1497  13.8932
O 14.2216  -4.85025  -13.8932
C -4.78361  13.8675  13.1828
O 13.2164  -4.13249  -13.1828
C -5.57888  14.358  12.4028
O 12.4211  -3.64204  -12.4028
C -6.23644  14.687  11.5803
O 11.7636  -3.31298  -11.5803
C -6.80698  14.8974  10.7323
O 11.193  -3.10257  -10.7323
C -7.32646  15.0148  9.86949
O 10.6735  -2.98522  -9.86949
C -7.82232  15.0525  9
O 10.1777  -2.9475  -9
C -8.31818  15.0148  8.13051
O 9.68182  -2.98522  -8.13051
C -8.83767  14.8974  7.26773
O 9.16233  -3.10257  -7.26773
C -9.40821  14.687  6.41966
O 8.59179  -3.31298  -6.41966
C -10.0658  14.358  5.59724
O 7.93423  -3.64204  -5.59724
C -10.861  13.8675  4.81721
O 7.13896  -4.13249  -4.81721
C -11.8662  13.1497  4.10675
O 6.13376  -4.85025  -4.10675
C -13.1733  12.118  3.51081
O 4.82675  -5.88204  -3.51081
C -14.8508  10.7079  3.09803
O 3.14922  -7.29212  -3.09803
C -16.8223  9  2.9475
O 1.17768  -9  -2.9475
C -16.6738  9  3.92392
O 1.32625  -9  -3.92392
C 17.7687  7.79967  4.02932
O -0.231343  -10.2003  -4.02932
C 16.3347  6.72774  4.32975
O -1.66533  -11.2723  -4.32975
C 15.0875  5.85248  4.78753
O -2.91249  -12.1475  -4.78753
C 14.0273  5.1796  5.36077
O -3.97265  -12.8204  -5.36077
C 13.1221  4.68338  6.01424
O -4.8779  -13.3166  -6.01424
C 12.3325  4.33217  6.72161
O -5.66749  -13.6678  -6.72161
C 11.6228  4.09951  7.46391
O -6.37721  -13.9005  -7.46391
C 10.9627  3.96696  8.22707
O -7.03732  -14.033  -8.22707
C 10.3262  3.92392  9
O -7.67375  -14.0761  -9
C 9.68982  3.96696  9.77293
O -8.31018  -14.033  -9.77293
C 9.0297  4.09951  10.5361
O -8.9703  -13.9005  -10.5361
C 8.31999  4.33217  11.2784
O -9.68001  -13.6678  -11.2784
C 7.5304  4.68338  11.9858
O -10.4696  -13.3166  -11.9858
C 6.62515  5.1796  12.6392
O -11.3749  -12.8204  -12.6392
C 5.56498  5.85248  13.2125
O -12.435  -12.1475  -13.2125
C 4.31783  6.72774  13.6703
O -13.6822  -11.2723  -13.6703
C 2.88384  7.79967  13.9707
O -15.1162  -10.2003  -13.9707
C 1.32625  9  14.0761
O -16.6738  -9  -14.0761
C -0.231343  10.2003  13.9707
O 17.7687  -7.79967  -13.9707
C -1.66533  11.2723  13.6703
O 16.3347  -6.72774  -13.6703
C -2.91249  12.1475  13.2125
O 15.0875  -5.85248  -13.2125
C -3.97265  12.8204  12.6392
O 14.0273  -5.1796  -12.6392
C -4.8779  13.3166  11.9858
O 13.1221  -4.68338  -11.9858
C -5.66749  13.6678  11.2784
O 12.3325  -4.33217  -11.2784
C -6.37721  13.9005  10.5361
O 11.6228  -4.09951  -10.5361
C -7.03732  14.033  9.77293
O 10.9627  -3.96696  -9.77293
C -7.67375  14.0761  9
O 10.3262  -3.92392  -9
C -8.31018  14.033  8.22707
O 9.68982  -3.96696  -8.22707
C -8.9703  13.9005  7.46391
O 9.0297  -4.09951  -7.46391
C -9.68001  13.6678  6.72161
O 8.31999  -4.33217  -6.72161
C -10.4696  13.3166  6.01424
O 7.5304  -4.68338  -6.01424
C -11.3749  12.8204  5.36077
O 6.62515  -5.1796  -5.36077
C -12.435  12.1475  4.78753
O 5.56498  -5.85248  -4.78753
C -13.6822  11.2723  4.32975
O 4.31783  -6.72774  -4.32975
C -15.1162  10.2003  4.02932
O 2.88384  -7.79967  -4.02932
C -16.6738  9  3.92392
O 1.32625  -9  -3.92392
C -16.431  9  4.89254
O 1.56898  -9  -4.89254
C -17.7475  8.13938  4.96798
O 0.252493  -9.86062  -4.96798
C 16.9918  7.34009  5.18723
O -1.0082  -10.6599  -5.18723
C 15.8243  6.6453  5.53185
O -2.17574  -11.3547  -5.53185
C 14.7627  6.07408  5.97799
O -3.23734  -11.9259  -5.97799
C 13.8006  5.62704  6.50177
O -4.19945  -12.373  -6.50177
C 12.921  5.29543  7.0821
O -5.07897  -12.7046  -7.0821
C 12.1033  5.06821  7.70135
O -5.8967  -12.9318  -7.70135
C 11.3261  4.93594  8.34486
O -6.67386  -13.0641  -8.34486
C 10.569  4.89254  9
O -7.43102  -13.1075  -9
C 9.81181  4.93594  9.65514
O -8.18819  -13.0641  -9.65514
C 9.03465  5.06821  10.2986
O -8.96535  -12.9318  -10.2986
C 8.21692  5.29543  10.9179
O -9.78308  -12.7046  -10.9179
C 7.3374  5.62704  11.4982
O -10.6626  -12.373  -11.4982
C 6.37529  6.07408  12.022
O -11.6247  -11.9259  -12.022
C 5.3137  6.6453  12.4681
O -12.6863  -11.3547  -12.4681
C 4.14616  7.34009  12.8128
O -13.8538  -10.6599  -12.8128
C 2.88546  8.13938  13.032
O -15.1145  -9.86062  -13.032
C 1.56898  9  13.1075
O -16.431  -9  -13.1075
C 0.252493  9.86062  13.032
O -17.7475  -8.13938  -13.032
C -1.0082  10.6599  12.8128
O 16.9918  -7.34009  -12.8128
C -2.17574  11.3547  12.4681
O 15.8243  -6.6453  -12.4681
C -3.23734  11.9259  12.022
O 14.7627  -6.07408  -12.022
C -4.19945  12.373  11.4982
O 13.8006  -5.62704  -11.4982
C -5.07897  12.7046  10.9179
O 12.921  -5.29543  -10.9179
C -5.8967  12.9318  10.2986
O 12.1033  -5.06821  -10.2986
C -6.67386  13.0641  9.65514
O 11.3261  -4.93594  -9.65514
C -7.43102  13.1075  9
O 10.569  -4.89254  -9
C -8.18819  13.0641  8.34486
O 9.81181  -4.93594  -8.34486
C -8.96535  12.9318  7.70135
O 9.03465  -5.06821  -7.70135
C -9.78308  12.7046  7.0821
O 8.21692  -5.29543  -7.0821
C -10.6626  12.373  6.50177
O 7.3374  -5.62704  -6.50177
C -11.6247  11.9259  5.97799
O 6.37529  -6.07408  -5.97799
C -12.6863  11.3547  5.53185
O 5.3137  -6.6453  -5.53185
C -13.8538  10.6599  5.18723
O 4.14616  -7.34009  -5.18723
C -15.1145  9.86062  4.96798
O 2.88546  -8.13938  -4.96798
C -16.431  9  4.89254
O 1.56898  -9  -4.89254
C -16.0145  9  5.84567
O 1.98552  -9  -5.84567
C -17.1834  8.39157  5.89895
O 0.816582  -9.60843  -5.89895
C 17.6729  7.81432  6.05546
O -0.327077  -10.1857  -6.05546
C 16.574  7.29377  6.30601
O -1.42603  -10.7062  -6.30601
C 15.5301  6.84673  6.63749
O -2.46995  -11.1533  -6.63749
C 14.5424  6.48157  7.03502
O -3.45755  -11.5184  -7.03502
C 13.6054  6.20048  7.48367
O -4.39456  -11.7995  -7.48367
C 12.7089  6.00227  7.96928
O -5.29113  -11.9977  -7.96928
C 11.8401  5.88464  8.47879
O -6.15987  -12.1154  -8.47879
C 10.9855  5.84567  9
O -7.01448  -12.1543  -9
C 10.1309  5.88464  9.52121
O -7.86909  -12.1154  -9.52121
C 9.26217  6.00227  10.0307
O -8.73783  -11.9977  -10.0307
C 8.3656  6.20048  10.5163
O -9.6344  -11.7995  -10.5163
C 7.42859  6.48157  10.965
O -10.5714  -11.5184  -10.965
C 6.44099  6.84673  11.3625
O -11.559  -11.1533  -11.3625
C 5.39707  7.29377  11.694
O -12.6029  -10.7062  -11.694
C 4.29812  7.81432  11.9445
O -13.7019  -10.1857  -11.9445
C 3.15446  8.39157  12.101
O -14.8455  -9.60843  -12.101
C 1.98552  9  12.1543
O -16.0145  -9  -12.1543
C 0.816582  9.60843  12.101
O -17.1834  -8.39157  -12.101
C -0.327077  10.1857  11.9445
O 17.6729  -7.81432  -11.9445
C -1.42603  10.7062  11.694
O 16.574  -7.29377  -11.694
C -2.46995  11.1533  11.3625
O 15.5301  -6.84673  -11.3625
C -3.45755  11.5184  10.965
O 14.5424  -6.48157  -10.965
C -4.39456  11.7995  10.5163
O 13.6054  -6.20048  -10.5163
C -5.29113  11.9977  10.0307
O 12.7089  -6.00227  -10.0307
C -6.15987  12.1154  9.52121
O 11.8401  -5.88464  -9.52121
C -7.01448  12.1543  9
O 10.9855  -5.84567  -9
C -7.86909  12.1154  8.47879
O 10.1309  -5.88464  -8.47879
C -8.73783  11.9977  7.96928
O 9.26217  -6.00227  -7.96928
C -9.6344  11.7995  7.48367
O 8.3656  -6.20048  -7.48367
C -10.5714  11.5184  7.03502
O 7.42859  -6.48157  -7.03502
C -11.559  11.1533  6.63749
O 6.44099  -6.84673  -6.63749
C -12.6029  10.7062  6.30601
O 5.39707  -7.29377  -6.30601
C -13.7019  10.1857  6.05546
O 4.29812  -7.81432  -6.05546
C -14.8455  9.60843  5.89895
O 3.15446  -8.39157  -5.89895
C -16.0145  9  5.84567
O 1.98552  -9  -5.84567
C -15.217  9  6.76292
O 2.783  -9  -6.76292
C -16.2965  8.59121  6.7987
O 1.70346  -9.40879  -6.7987
C -17.3654  8.19873  6.90443
O 0.634578  -9.80127  -6.90443
C 17.5852  7.83716  7.0755
O -0.414812  -10.1628  -7.0755
C 16.561  7.51816  7.30489
O -1.43903  -10.4818  -7.30489
C 15.564  7.25008  7.58392
O -2.43604  -10.7499  -7.58392
C 14.5928  7.03822  7.90297
O -3.40723  -10.9618  -7.90297
C 13.6432  6.88559  8.25204
O -4.35679  -11.1144  -8.25204
C 12.7091  6.79362  8.62105
O -5.29091  -11.2064  -8.62105
C 11.783  6.76292  9
O -6.217  -11.2371  -9
C 10.8569  6.79362  9.37895
O -7.1431  -11.2064  -9.37895
C 9.92279  6.88559  9.74796
O -8.07721  -11.1144  -9.74796
C 8.97323  7.03822  10.097
O -9.02677  -10.9618  -10.097
C 8.00203  7.25008  10.4161
O -9.99797  -10.7499  -10.4161
C 7.00503  7.51816  10.6951
O -10.995  -10.4818  -10.6951
C 5.98081  7.83716  10.9245
O -12.0192  -10.1628  -10.9245
C 4.93142  8.19873  11.0956
O -13.0686  -9.80127  -11.0956
C 3.86254  8.59121  11.2013
O -14.1375  -9.40879  -11.2013
C 2.783  9  11.2371
O -15.217  -9  -11.2371
C 1.70346  9.40879  11.2013
O -16.2965  -8.59121  -11.2013
C 0.634578  9.80127  11.0956
O -17.3654  -8.19873  -11.0956
C -0.414812  10.1628  10.9245
O 17.5852  -7.83716  -10.9245
C -1.43903  10.4818  10.6951
O 16.561  -7.51816  -10.6951
C -2.43604  10.7499  10.4161
O 15.564  -7.25008  -10.4161
C -3.40723  10.9618  10.097
O 14.5928  -7.03822  -10.097
C -4.35679  11.1144  9.74796
O 13.6432  -6.88559  -9.74796
C -5.29091  11.2064  9.37895
O 12.7091  -6.79362  -9.37895
C -6.217  11.2371  9
O 11.783  -6.76292  -9
C -7.1431  11.2064  8.62105
O 10.8569  -6.79362  -8.62105
C -8.07721  11.1144  8.25204
O 9.92279  -6.88559  -8.25204
C -9.02677  10.9618  7.90297
O 8.97323  -7.03822  -7.90297
C -9.99797  10.7499  7.58392
O 8.00203  -7.25008  -7.58392
C -10.995  10.4818  7.30489
O 7.00503  -7.51816  -7.30489
C -12.0192  10.1628  7.0755
O 5.98081  -7.83716  -7.0755
C -13.0686  9.80127  6.90443
O 4.93142  -8.19873  -6.90443
C -14.1375  9.40879  6.7987
O 3.86254  -8.59121  -6.7987
C -15.217  9  6.76292
O 2.783  -9  -6.76292
C -13.3883  9  7.57282
O 4.61172  -9  -7.57282
C -14.4195  8.74708  7.59496
O 3.58055  -9.25292  -7.59496
C -15.4467  8.50278  7.66055
O 2.5533  -9.49722  -7.66055
C -16.4667  8.27517  7.76728
O 1.53334  -9.72483  -7.76728
C -17.477  8.07139  7.91145
O 0.523048  -9.92861  -7.91145
C 17.5235  7.89735  8.08824
O -0.476471  -10.1026  -8.08824
C 16.5346  7.75766  8.29197
O -1.46544  -10.2423  -8.29197
C 15.5547  7.65568  8.51633
O -2.44532  -10.3443  -8.51633
C 14.5815  7.59364  8.75465
O -3.41855  -10.4064  -8.75465
C 13.6117  7.57282  9
O -4.38828  -10.4272  -9
C 12.642  7.59364  9.24535
O -5.35801  -10.4064  -9.24535
C 11.6688  7.65568  9.48367
O -6.33125  -10.3443  -9.48367
C 10.6889  7.75766  9.70803
O -7.31112  -10.2423  -9.70803
C 9.69991  7.89735  9.91176
O -8.30009  -10.1026  -9.91176
C 8.70039  8.07139  10.0885
O -9.29961  -9.92861  -10.0885
C 7.6901  8.27517  10.2327
O -10.3099  -9.72483  -10.2327
C 6.67014  8.50278  10.3394
O -11.3299  -9.49722  -10.3394
C 5.64289  8.74708  10.405
O -12.3571  -9.25292  -10.405
C 4.61172  9  10.4272
O -13.3883  -9  -10.4272
C 3.58055  9.25292  10.405
O -14.4195  -8.74708  -10.405
C 2.5533  9.49722  10.3394
O -15.4467  -8.50278  -10.3394
C 1.53334  9.72483  10.2327
O -16.4667  -8.27517  -10.2327
C 0.523048  9.92861  10.0885
O -17.477  -8.07139  -10.0885
C -0.476471  10.1026  9.91176
O 17.5235  -7.89735  -9.91176
C -1.46544  10.2423  9.70803
O 16.5346  -7.75766  -9.70803
C -2.44532  10.3443  9.48367
O 15.5547  -7.65568  -9.48367
C -3.41855  10.4064  9.24535
O 14.5815  -7.59364  -9.24535
C -4.38828  10.4272  9
O 13.6117  -7.57282  -9
C -5.35801  10.4064  8.75465
O 12.642  -7.59364  -8.75465
C -6.33125  10.3443  8.51633
O 11.6688  -7.65568  -8.51633
C -7.31112  10.2423  8.29197
O 10.6889  -7.75766  -8.29197
C -8.30009  10.1026  8.08824
O 9.69991  -7.89735  -8.08824
C -9.29961  9.92861  7.91145
O 8.70039  -8.07139  -7.91145
C -10.3099  9.72483  7.76728
O 7.6901  -8.27517  -7.76728
C -11.3299  9.49722  7.66055
O 6.67014  -8.50278  -7.66055
C -12.3571  9.25292  7.59496
O 5.64289  -8.74708  -7.59496
C -13.3883  9  7.57282
O 4.61172  -9  -7.57282
C -9  9  7.97652
O 9  -9  -7.97652
C -10.0158  8.82042  7.99223
O 7.98416  -9.17958  -7.99223
C -11.0297  8.64663  8.03885
O 6.97028  -9.35337  -8.03885
C -12.04  8.48414  8.11483
O 5.96005  -9.51586  -8.11483
C -13.0453  8.33799  8.2177
O 4.95469  -9.66201  -8.2177
C -14.0452  8.21252  8.34418
O 3.95481  -9.78748  -8.34418
C -15.0396  8.11129  8.49031
O 2.96037  -9.88871  -8.49031
C -16.0294  8.03705  8.65159
O 1.97064  -9.96295  -8.65159
C -17.0156  7.99175  8.82319
O 0.984402  -10.0083  -8.82319
C 18  7.97652  9
O -0  -10.0235  -9
C 17.0156  7.99175  9.17681
O -0.984402  -10.0083  -9.17681
C 16.0294  8.03705  9.34841
O -1.97064  -9.96295  -9.34841
C 15.0396  8.11129  9.50969
O -2.96037  -9.88871  -9.50969
C 14.0452  8.21252  9.65582
O -3.95481  -9.78748  -9.65582
C 13.0453  8.33799  9.7823
O -4.95469  -9.66201  -9.7823
C 12.04  8.48414  9.88517
O -5.96005  -9.51586  -9.88517
C 11.0297  8.64663  9.96115
O -6.97028  -9.35337  -9.96115
C 10.0158  8.82042  10.0078
O -7.98416  -9.17958  -10.0078
C 9  9  10.0235
O -9  -9  -10.0235
C 7.98416  9.17958  10.0078
O -10.0158  -8.82042  -10.0078
C 6.97028  9.35337  9.96115
O -11.0297  -8.64663  -9.96115
C 5.96005  9.51586  9.88517
O -12.04  -8.48414  -9.88517
C 4.95469  9.66201  9.7823
O -13.0453  -8.33799  -9.7823
C 3.95481  9.78748  9.65582
O -14.0452  -8.21252  -9.65582
C 2.96037  9.88871  9.50969
O -15.0396  -8.11129  -9.50969
C 1.97064  9.96295  9.34841
O -16.0294  -8.03705  -9.34841
C 0.984402  10.0083  9.17681
O -17.0156  -7.99175  -9.17681
C 0  10.0235  9
O -18  -7.97652  -9
C -0.984402  10.0083  8.82319
O 17.0156  -7.99175  -8.82319
C -1.97064  9.96295  8.65159
O 16.0294  -8.03705  -8.65159
C -2.96037  9.88871  8.49031
O 15.0396  -8.11129  -8.49031
C -3.95481  9.78748  8.34418
O 14.0452  -8.21252  -8.34418
C -4.95469  9.66201  8.2177
O 13.0453  -8.33799  -8.2177
C -5.96005  9.51586  8.11483
O 12.04  -8.48414  -8.11483
C -6.97028  9.35337  8.03885
O 11.0297  -8.64663  -8.03885
C -7.98416  9.17958  7.99223
O 10.0158  -8.82042  -7.99223
C -9  9  7.97652
O 9  -9  -7.97652
C -4.61172  9  7.57282
O 13.3883  -9  -7.57282
C -5.64289  8.74708  7.59496
O 12.3571  -9.25292  -7.59496
C -6.67014  8.50278  7.66055
O 11.3299  -9.49722  -7.66055
C -7.6901  8.27517  7.76728
O 10.3099  -9.72483  -7.76728
C -8.70039  8.07139  7.91145
O 9.29961  -9.92861  -7.91145
C -9.69991  7.89735  8.08824
O 8.30009  -10.1026  -8.08824
C -10.6889  7.75766  8.29197
O 7.31112  -10.2423  -8.29197
C -11.6688  7.65568  8.51633
O 6.33125  -10.3443  -8.51633
C -12.642  7.59364  8.75465
O 5.35801  -10.4064  -8.75465
C -13.6117  7.57282  9
O 4.38828  -10.4272  -9
C -14.5815  7.59364  9.24535
O 3.41855  -10.4064  -9.24535
C -15.5547  7.65568  9.48367
O 2.44532  -10.3443  -9.48367
C -16.5346  7.75766  9.70803
O 1.46544  -10.2423  -9.70803
C -17.5235  7.89735  9.91176
O 0.476471  -10.1026  -9.91176
C 17.477  8.07139  10.0885
O -0.523048  -9.92861  -10.0885
C 16.4667  8.27517  10.2327
O -1.53334  -9.72483  -10.2327
C 15.4467  8.50278  10.3394
O -2.5533  -9.49722  -10.3394
C 14.4195  8.74708  10.405
O -3.58055  -9.25292  -10.405
C 13.3883  9  10.4272
O -4.61172  -9  -10.4272
C 12.3571  9.25292  10.405
O -5.64289  -8.74708  -10.405
C 11.3299  9.49722  10.3394
O -6.67014  -8.50278  -10.3394
C 10.3099  9.72483  10.2327
O -7.6901  -8.27517  -10.2327
C 9.29961  9.92861  10.0885
O -8.70039  -8.07139  -10.0885
C 8.30009  10.1026  9.91176
O -9.69991  -7.89735  -9.91176
C 7.31112  10.2423  9.70803
O -10.6889  -7.75766  -9.70803
C 6.33125  10.3443  9.48367
O -11.6688  -7.65568  -9.48367
C 5.35801  10.4064  9.24535
O -12.642  -7.59364  -9.24535
C 4.38828  10.4272  9
O -13.6117  -7.57282  -9
C 3.41855  10.4064  8.75465
O -14.5815  -7.59364  -8.75465
C 2.44532  10.3443  8.51633
O -15.5547  -7.65568  -8.51633
C 1.46544  10.2423  8.29197
O -16.5346  -7.75766  -8.29197
C 0.476471  10.1026  8.08824
O -17.5235  -7.89735  -8.08824
C -0.523048  9.92861  7.91145
O 17.477  -8.07139  -7.91145
C -1.53334  9.72483  7.76728
O 16.4667  -8.27517  -7.76728
C -2.5533  9.49722  7.66055
O 15.4467  -8.50278  -7.66055
C -3.58055  9.25292  7.59496
O 14.4195  -8.74708  -7.59496
C -4.61172  9  7.57282
O 13.3883  -9  -7.57282
C -2.783  9  6.76292
O 15.217  -9  -6.76292
C -3.86254  8.59121  6.7987
O 14.1375  -9.40879  -6.7987
C -4.93142  8.19873  6.90443
O 13.0686  -9.80127  -6.90443
C -5.98081  7.83716  7.0755
O 12.0192  -10.1628  -7.0755
C -7.00503  7.51816  7.30489
O 10.995  -10.4818  -7.30489
C -8.00203  7.25008  7.58392
O 9.99797  -10.7499  -7.58392
C -8.97323  7.03822  7.90297
O 9.02677  -10.9618  -7.90297
C -9.92279  6.88559  8.25204
O 8.07721  -11.1144  -8.25204
C -10.8569  6.79362  8.62105
O 7.1431  -11.2064  -8.62105
C -11.783  6.76292  9
O 6.217  -11.2371  -9
C -12.7091  6.79362  9.37895
O 5.29091  -11.2064  -9.37895
C -13.6432  6.88559  9.74796
O 4.35679  -11.1144  -9.74796
C -14.5928  7.03822  10.097
O 3.40723  -10.9618  -10.097
C -15.564  7.25008  10.4161
O 2.43604  -10.7499  -10.4161
C -16.561  7.51816  10.6951
O 1.43903  -10.4818  -10.6951
C -17.5852  7.83716  10.9245
O 0.414812  -10.1628  -10.9245
C 17.3654  8.19873  11.0956
O -0.634578  -9.80127  -11.0956
C 16.2965  8.59121  11.2013
O -1.70346  -9.40879  -11.2013
C 15.217  9  11.2371
O -2.783  -9  -11.2371
C 14.1375  9.40879  11.2013
O -3.86254  -8.59121  -11.2013
C 13.0686  9.80127  11.0956
O -4.93142  -8.19873  -11.0956
C 12.0192  10.1628  10.9245
O -5.98081  -7.83716  -10.9245
C 10.995  10.4818  10.6951
O -7.00503  -7.51816  -10.6951
C 9.99797  10.7499  10.4161
O -8.00203  -7.25008  -10.4161
C 9.02677  10.9618  10.097
O -8.97323  -7.03822  -10.097
C 8.07721  11.1144  9.74796
O -9.92279  -6.88559  -9.74796
C 7.1431  11.2064  9.37895
O -10.8569  -6.79362  -9.37895
C 6.217  11.2371  9
O -11.783  -6.76292  -9
C 5.29091  11.2064  8.62105
O -12.7091  -6.79362  -8.62105
C 4.35679  11.1144  8.25204
O -13.6432  -6.88559  -8.25204
C 3.40723  10.9618  7.90297
O -14.5928  -7.03822  -7.90297
C 2.43604  10.7499  7.58392
O -15.564  -7.25008  -7.58392
C 1.43903  10.4818  7.30489
O -16.561  -7.51816  -7.30489
C 0.414812  10.1628  7.0755
O -17.5852  -7.83716  -7.0755
C -0.634578  9.80127  6.90443
O 17.3654  -8.19873  -6.90443
C -1.70346  9.40879  6.7987
O 16.2965  -8.59121  -6.7987
C -2.783  9  6.76292
O 15.217  -9  -6.76292
C -1.98552  9  5.84567
O 16.0145  -9  -5.84567
C -3.15446  8.39157  5.89895
O 14.8455  -9.60843  -5.89895
C -4.29812  7.81432  6.05546
O 13.7019  -10.1857  -6.05546
C -5.39707  7.29377  6.30601
O 12.6029  -10.7062  -6.30601
C -6.44099  6.84673  6.63749
O 11.559  -11.1533  -6.63749
C -7.4286  6.48157  7.03502
O 10.5714  -11.5184  -7.03502
C -8.3656  6.20048  7.48367
O 9.6344  -11.7995  -7.48367
C -9.26217  6.00227  7.96928
O 8.73783  -11.9977  -7.96928
C -10.1309  5.88464  8.47879
O 7.86909  -12.1154  -8.47879
C -10.9855  5.84567  9
O 7.01448  -12.1543  -9
C -11.8401  5.88464  9.52121
O 6.15987  -12.1154  -9.52121
C -12.7089  6.00227  10.0307
O 5.29113  -11.9977  -10.0307
C -13.6054  6.20048  10.5163
O 4.39456  -11.7995  -10.5163
C -14.5424  6.48157  10.965
O 3.45755  -11.5184  -10.965
C -15.5301  6.84673  11.3625
O 2.46995  -11.1533  -11.3625
C -16.574  7.29377  11.694
O 1.42603  -10.7062  -11.694
C -17.6729  7.81432  11.9445
O 0.327077  -10.1857  -11.9445
C 17.1834  8.39157  12.101
O -0.816582  -9.60843  -12.101
C 16.0145  9  12.1543
O -1.98552  -9  -12.1543
C 14.8455  9.60843  12.101
O -3.15446  -8.39157  -12.101
C 13.7019  10.1857  11.9445
O -4.29812  -7.81432  -11.9445
C 12.6029  10.7062  11.694
O -5.39707  -7.29377  -11.694
C 11.559  11.1533  11.3625
O -6.44099  -6.84673  -11.3625
C 10.5714  11.5184  10.965
O -7.4286  -6.48157  -10.965
C 9.6344  11.7995  10.5163
O -8.3656  -6.20048  -10.5163
C 8.73783  11.9977  10.0307
O -9.26217  -6.00227  -10.0307
C 7.86909  12.1154  9.52121
O -10.1309  -5.88464  -9.52121
C 7.01448  12.1543  9
O -10.9855  -5.84567  -9
C 6.15987  12.1154  8.47879
O -11.8401  -5.88464  -8.47879
C 5.29113  11.9977  7.96928
O -12.7089  -6.00227  -7.96928
C 4.39456  11.7995  7.48367
O -13.6054  -6.20048  -7.48367
C 3.45755  11.5184  7.03502
O -14.5424  -6.48157  -7.03502
C 2.46995  11.1533  6.63749
O -15.5301  -6.84673  -6.63749
C 1.42603  10.7062  6.30601
O -16.574  -7.29377  -6.30601
C 0.327077  10.1857  6.05546
O -17.6729  -7.81432  -6.05546
C -0.816582  9.60843  5.89895
O 17.1834  -8.39157  -5.89895
C -1.98552  9  5.84567
O 16.0145  -9  -5.84567
C -1.56898  9  4.89254
O 16.431  -9  -4.89254
C -2.88546  8.13938  4.96798
O 15.1145  -9.86062  -4.96798
C -4.14616  7.34009  5.18723
O 13.8538  -10.6599  -5.18723
C -5.3137  6.6453  5.53185
O 12.6863  -11.3547  -5.53185
C -6.37529  6.07408  5.97799
O 11.6247  -11.9259  -5.97799
C -7.3374  5.62704  6.50177
O 10.6626  -12.373  -6.50177
C -8.21692  5.29543  7.0821
O 9.78308  -12.7046  -7.0821
C -9.03465  5.06821  7.70135
O 8.96535  -12.9318  -7.70135
C -9.81181  4.93594  8.34486
O 8.18819  -13.0641  -8.34486
C -10.569  4.89254  9
O 7.43102  -13.1075  -9
C -11.3261  4.93594  9.65514
O 6.67386  -13.0641  -9.65514
C -12.1033  5.06821  10.2986
O 5.8967  -12.9318  -10.2986
C -12.921  5.29543  10.9179
O 5.07897  -12.7046  -10.9179
C -13.8006  5.62704  11.4982
O 4.19944  -12.373  -11.4982
C -14.7627  6.07408  12.022
O 3.23734  -11.9259  -12.022
C -15.8243  6.6453  12.4681
O 2.17574  -11.3547  -12.4681
C -16.9918  7.34009  12.8128
O 1.0082  -10.6599  -12.8128
C 17.7475  8.13938  13.032
O -0.252493  -9.86062  -13.032
C 16.431  9  13.1075
O -1.56898  -9  -13.1075
C 15.1145  9.86062  13.032
O -2.88546  -8.13938  -13.032
C 13.8538  10.6599  12.8128
O -4.14616  -7.34009  -12.8128
C 12.6863  11.3547  12.4681
O -5.3137  -6.6453  -12.4681
C 11.6247  11.9259  12.022
O -6.37529  -6.07408  -12.022
C 10.6626  12.373  11.4982
O -7.3374  -5.62704  -11.4982
C 9.78308  12.7046  10.9179
O -8.21692  -5.29543  -10.9179
C 8.96535  12.9318  10.2986
O -9.03465  -5.06821  -10.2986
C 8.18819  13.0641  9.65514
O -9.81181  -4.93594  -9.65514
C 7.43102  13.1075  9
O -10.569  -4.89254  -9
C 6.67386  13.0641  8.34486
O -11.3261  -4.93594  -8.34486
C 5.8967  12.9318  7.70135
O -12.1033  -5.06821  -7.70135
C 5.07897  12.7046  7.0821
O -12.921  -5.29543  -7.0821
C 4.19944  12.373  6.50177
O -13.8006  -5.62704  -6.50177
C 3.23734  11.9259  5.97799
O -14.7627  -6.07408  -5.97799
C 2.17574  11.3547  5.53185
O -15.8243  -6.6453  -5.53185
C 1.0082  10.6599  5.18723
O -16.9918  -7.34009  -5.18723
C -0.252493  9.86062  4.96798
O 17.7475  -8.13938  -4.96798
C -1.56898  9  4.89254
O 16.431  -9  -4.89254
C -1.32625  9  3.92392
O 16.6738  -9  -3.92392
C -2.88384  7.79967  4.02932
O 15.1162  -10.2003  -4.02932
C -4.31783  6.72774  4.32975
O 13.6822  -11.2723  -4.32975
C -5.56498  5.85248  4.78753
O 12.435  -12.1475  -4.78753
C -6.62515  5.1796  5.36077
O 11.3749  -12.8204  -5.36077
C -7.5304  4.68338  6.01424
O 10.4696  -13.3166  -6.01424
C -8.31999  4.33217  6.72161
O 9.68001  -13.6678  -6.72161
C -9.0297  4.09951  7.46391
O 8.9703  -13.9005  -7.46391
C -9.68982  3.96696  8.22707
O 8.31018  -14.033  -8.22707
C -10.3262  3.92392  9
O 7.67375  -14.0761  -9
C -10.9627  3.96696  9.77293
O 7.03732  -14.033  -9.77293
C -11.6228  4.09951  10.5361
O 6.37721  -13.9005  -10.5361
C -12.3325  4.33217  11.2784
O 5.66749  -13.6678  -11.2784
C -13.1221  4.68338  11.9858
O 4.8779  -13.3166  -11.9858
C -14.0273  5.1796  12.6392
O 3.97265  -12.8204  -12.6392
C -15.0875  5.85248  13.2125
O 2.91249  -12.1475  -13.2125
C -16.3347  6.72774  13.6703
O 1.66533  -11.2723  -13.6703
C -17.7687  7.79967  13.9707
O 0.231343  -10.2003  -13.9707
C 16.6738  9  14.0761
O -1.32625  -9  -14.0761
C 15.1162  10.2003  13.9707
O -2.88384  -7.79967  -13.9707
C 13.6822  11.2723  13.6703
O -4.31783  -6.72774  -13.6703