720
ksi trajectory with 1 deg step !! manualy cropped, in 10th degrees !!
C 6.94604  2.47129  6.50026
O -11.054  -15.5287  -6.50026
C 6.963  2.50993  6.43423
O -11.037  -15.4901  -6.43423
C 6.98142  2.54899  6.36831
O -11.0186  -15.451  -6.36831
C 7.0013  2.58848  6.30251
O -10.9987  -15.4115  -6.30251
C 7.02266  2.62843  6.23686
O -10.9773  -15.3716  -6.23686
C 7.04551  2.66884  6.17135
O -10.9545  -15.3312  -6.17135
C 7.06987  2.70971  6.10601
O -10.9301  -15.2903  -6.10601
C 7.09576  2.75107  6.04084
O -10.9042  -15.2489  -6.04084
C 7.12318  2.79293  5.97587
O -10.8768  -15.2071  -5.97587
C 7.15216  2.8353  5.91111
O -10.8478  -15.1647  -5.91111
C 7.18271  2.87819  5.84656
O -10.8173  -15.1218  -5.84656
C 7.21485  2.92162  5.78225
O -10.7852  -15.0784  -5.78225
C 7.2486  2.9656  5.71819
O -10.7514  -15.0344  -5.71819
C 7.28399  3.01013  5.65439
O -10.716  -14.9899  -5.65439
C 7.32102  3.05525  5.59087
O -10.679  -14.9448  -5.59087
C 7.35974  3.10095  5.52764
O -10.6403  -14.899  -5.52764
C 7.40015  3.14726  5.46472
O -10.5999  -14.8527  -5.46472
C 7.44228  3.19419  5.40212
O -10.5577  -14.8058  -5.40212
C 7.48615  3.24174  5.33986
O -10.5138  -14.7583  -5.33986
C 7.5318  3.28994  5.27796
O -10.4682  -14.7101  -5.27796
C 7.57923  3.33879  5.21643
O -10.4208  -14.6612  -5.21643
C 7.62849  3.38832  5.15529
O -10.3715  -14.6117  -5.15529
C 7.6796  3.43853  5.09456
O -10.3204  -14.5615  -5.09456
C 7.73257  3.48943  5.03425
O -10.2674  -14.5106  -5.03425
C 7.78745  3.54105  4.97438
O -10.2125  -14.459  -4.97438
C 7.84426  3.59338  4.91496
O -10.1557  -14.4066  -4.91496
C 7.90302  3.64644  4.85603
O -10.097  -14.3536  -4.85603
C 7.96376  3.70024  4.79759
O -10.0362  -14.2998  -4.79759
C 8.02652  3.7548  4.73966
O -9.97348  -14.2452  -4.73966
C 8.09131  3.81011  4.68226
O -9.90869  -14.1899  -4.68226
C 8.15817  3.86619  4.62542
O -9.84183  -14.1338  -4.62542
C 8.22713  3.92305  4.56914
O -9.77287  -14.0769  -4.56914
C 8.2982  3.98069  4.51346
O -9.7018  -14.0193  -4.51346
C 8.37142  4.03911  4.45838
O -9.62858  -13.9609  -4.45838
C 8.44682  4.09832  4.40394
O -9.55318  -13.9017  -4.40394
C 8.52441  4.15832  4.35015
O -9.47559  -13.8417  -4.35015
C 8.60422  4.21911  4.29703
O -9.39578  -13.7809  -4.29703
C 8.68627  4.28068  4.2446
O -9.31373  -13.7193  -4.2446
C 8.77058  4.34303  4.19289
O -9.22942  -13.657  -4.19289
C 8.85718  4.40615  4.14191
O -9.14282  -13.5938  -4.14191
C 8.94607  4.47004  4.09168
O -9.05393  -13.53  -4.09168
C 9.03728  4.53467  4.04223
O -8.96272  -13.4653  -4.04223
C 9.13081  4.60004  3.99358
O -8.86919  -13.4  -3.99358
C 9.22667  4.66612  3.94574
O -8.77333  -13.3339  -3.94574
C 9.32488  4.73289  3.89875
O -8.67512  -13.2671  -3.89875
C 9.42542  4.80033  3.85261
O -8.57458  -13.1997  -3.85261
C 9.5283  4.86839  3.80735
O -8.4717  -13.1316  -3.80735
C 9.63352  4.93706  3.76299
O -8.36648  -13.0629  -3.76299
C 9.74105  5.00628  3.71955
O -8.25895  -12.9937  -3.71955
C 9.8509  5.07601  3.67705
O -8.1491  -12.924  -3.67705
C 9.96304  5.14621  3.63551
O -8.03696  -12.8538  -3.63551
C 10.0774  5.21681  3.59494
O -7.92257  -12.7832  -3.59494
C 10.1941  5.28776  3.55536
O -7.80594  -12.7122  -3.55536
C 10.3129  5.359  3.51678
O -7.68711  -12.641  -3.51678
C 10.4339  5.43044  3.47924
O -7.56614  -12.5696  -3.47924
C 10.5569  5.50202  3.44273
O -7.44307  -12.498  -3.44273
C 10.682  5.57365  3.40727
O -7.31795  -12.4263  -3.40727
C 10.8091  5.64524  3.37287
O -7.19086  -12.3548  -3.37287
C 10.9381  5.7167  3.33955
O -7.06186  -12.2833  -3.33955
C 11.069  5.78793  3.30731
O -6.93104  -12.2121  -3.30731
C 11.2015  5.85881  3.27617
O -6.79847  -12.1412  -3.27617
C 11.3357  5.92925  3.24612
O -6.66427  -12.0708  -3.24612
C 11.4715  5.99911  3.21718
O -6.52853  -12.0009  -3.21718
C 11.6086  6.06829  3.18935
O -6.39136  -11.9317  -3.18935
C 11.7471  6.13665  3.16263
O -6.25288  -11.8634  -3.16263
C 11.8868  6.20406  3.13703
O -6.11322  -11.7959  -3.13703
C 12.0275  6.27038  3.11253
O -5.97251  -11.7296  -3.11253
C 12.1691  6.33548  3.08915
O -5.8309  -11.6645  -3.08915
C 12.3115  6.39922  3.06687
O -5.68853  -11.6008  -3.06687
C 12.4544  6.46145  3.04569
O -5.54556  -11.5385  -3.04569
C 12.5978  6.52204  3.02561
O -5.40215  -11.478  -3.02561
C 12.7415  6.58082  3.00662
O -5.25847  -11.4192  -3.00662
C 12.8853  6.63766  2.9887
O -5.1147  -11.3623  -2.9887
C 13.029  6.69242  2.97185
O -4.97101  -11.3076  -2.97185
C 13.1724  6.74495  2.95606
O -4.82758  -11.2551  -2.95606
C 13.3154  6.7951  2.94131
O -4.6846  -11.2049  -2.94131
C 13.4577  6.84275  2.9276
O -4.54227  -11.1572  -2.9276
C 13.5992  6.88776  2.91491
O -4.40076  -11.1122  -2.91491
C 13.7397  6.93  2.90322
O -4.26028  -11.07  -2.90322
C 13.879  6.96936  2.89253
O -4.12102  -11.0306  -2.89253
C 14.0168  7.0057  2.88282
O -3.98316  -10.9943  -2.88282
C 14.1531  7.03893  2.87408
O -3.84691  -10.9611  -2.87408
C 14.2876  7.06895  2.8663
O -3.71244  -10.9311  -2.8663
C 14.4201  7.09566  2.85946
O -3.57995  -10.9043  -2.85946
C 14.5504  7.11898  2.85355
O -3.44961  -10.881  -2.85355
C 14.6784  7.13883  2.84857
O -3.32161  -10.8612  -2.84857
C 14.8039  7.15517  2.84451
O -3.1961  -10.8448  -2.84451
C 14.9267  7.16793  2.84136
O -3.07326  -10.8321  -2.84136
C 15.0468  7.17707  2.83911
O -2.95324  -10.8229  -2.83911
C 15.1638  7.18257  2.83777
O -2.83619  -10.8174  -2.83777
C 15.2778  7.1844  2.83732
O -2.72223  -10.8156  -2.83732
C 15.3885  7.18257  2.83777
O -2.61151  -10.8174  -2.83777
C 15.4959  7.17707  2.83911
O -2.50413  -10.8229  -2.83911
C 15.5998  7.16793  2.84136
O -2.40019  -10.8321  -2.84136
C 15.7002  7.15517  2.84451
O -2.29979  -10.8448  -2.84451
C 15.797  7.13883  2.84857
O -2.203  -10.8612  -2.84857
C 15.8901  7.11898  2.85355
O -2.1099  -10.881  -2.85355
C 15.9795  7.09566  2.85946
O -2.02052  -10.9043  -2.85946
C 16.0651  7.06895  2.8663
O -1.93492  -10.9311  -2.8663
C 16.1469  7.03893  2.87408
O -1.85311  -10.9611  -2.87408
C 16.2249  7.0057  2.88282
O -1.7751  -10.9943  -2.88282
C 16.2991  6.96936  2.89253
O -1.7009  -11.0306  -2.89253
C 16.3695  6.93  2.90322
O -1.63048  -11.07  -2.90322
C 16.4362  6.88776  2.91491
O -1.56383  -11.1122  -2.91491
C 16.4991  6.84275  2.9276
O -1.5009  -11.1572  -2.9276
C 16.5584  6.7951  2.94131
O -1.44163  -11.2049  -2.94131
C 16.614  6.74495  2.95606
O -1.38598  -11.2551  -2.95606
C 16.6661  6.69242  2.97185
O -1.33386  -11.3076  -2.97185
C 16.7148  6.63766  2.9887
O -1.28519  -11.3623  -2.9887
C 16.7601  6.58082  3.00662
O -1.2399  -11.4192  -3.00662
C 16.8021  6.52204  3.02561
O -1.19787  -11.478  -3.02561
C 16.841  6.46145  3.04569
O -1.15901  -11.5385  -3.04569
C 16.8768  6.39922  3.06687
O -1.12322  -11.6008  -3.06687
C 16.9096  6.33548  3.08915
O -1.09037  -11.6645  -3.08915
C 16.9396  6.27038  3.11253
O -1.06036  -11.7296  -3.11253
C 16.9669  6.20406  3.13703
O -1.03306  -11.7959  -3.13703
C 16.9917  6.13665  3.16263
O -1.00835  -11.8634  -3.16263
C 17.0139  6.06829  3.18935
O -0.986114  -11.9317  -3.18935
C 17.0338  5.99911  3.21718
O -0.96623  -12.0009  -3.21718
C 17.0514  5.92925  3.24612
O -0.948577  -12.0708  -3.24612
C 17.067  5.85881  3.27617
O -0.933035  -12.1412  -3.27617
C 17.0805  5.78793  3.30731
O -0.919486  -12.2121  -3.30731
C 17.0922  5.7167  3.33955
O -0.907815  -12.2833  -3.33955
C 17.1021  5.64524  3.37287
O -0.89791  -12.3548  -3.37287
C 17.1103  5.57365  3.40727
O -0.889662  -12.4263  -3.40727
C 17.117  5.50202  3.44273
O -0.882965  -12.498  -3.44273
C 17.1223  5.43044  3.47924
O -0.877718  -12.5696  -3.47924
C 17.1262  5.359  3.51678
O -0.873823  -12.641  -3.51678
C 17.1288  5.28776  3.55536
O -0.871187  -12.7122  -3.55536
C 17.1303  5.21681  3.59494
O -0.869723  -12.7832  -3.59494
C 17.1307  5.14621  3.63551
O -0.869345  -12.8538  -3.63551
C 17.13  5.07601  3.67705
O -0.869975  -12.924  -3.67705
C 17.1285  5.00628  3.71955
O -0.871537  -12.9937  -3.71955
C 17.126  4.93706  3.76299
O -0.87396  -13.0629  -3.76299
C 17.1228  4.86839  3.80735
O -0.87718  -13.1316  -3.80735
C 17.1189  4.80033  3.85261
O -0.881134  -13.1997  -3.85261
C 17.1142  4.73289  3.89875
O -0.885765  -13.2671  -3.89875
C 17.109  4.66612  3.94574
O -0.891019  -13.3339  -3.94574
C 17.1032  4.60004  3.99358
O -0.896847  -13.4  -3.99358
C 17.0968  4.53467  4.04223
O -0.903203  -13.4653  -4.04223
C 17.09  4.47004  4.09168
O -0.910046  -13.53  -4.09168
C 17.0827  4.40615  4.14191
O -0.917337  -13.5938  -4.14191
C 17.075  4.34303  4.19289
O -0.925041  -13.657  -4.19289
C 17.0669  4.28068  4.2446
O -0.933126  -13.7193  -4.2446
C 17.0584  4.21911  4.29703
O -0.941562  -13.7809  -4.29703
C 17.0497  4.15832  4.35015
O -0.950323  -13.8417  -4.35015
C 17.0406  4.09832  4.40394
O -0.959386  -13.9017  -4.40394
C 17.0313  4.03911  4.45838
O -0.968729  -13.9609  -4.45838
C 17.0217  3.98069  4.51346
O -0.978334  -14.0193  -4.51346
C 17.0118  3.92305  4.56914
O -0.988183  -14.0769  -4.56914
C 17.0017  3.86619  4.62542
O -0.998262  -14.1338  -4.62542
C 16.9914  3.81011  4.68226
O -1.00856  -14.1899  -4.68226
C 16.9809  3.7548  4.73966
O -1.01906  -14.2452  -4.73966
C 16.9702  3.70024  4.79759
O -1.02976  -14.2998  -4.79759
C 16.9594  3.64644  4.85603
O -1.04064  -14.3536  -4.85603
C 16.9483  3.59338  4.91496
O -1.05171  -14.4066  -4.91496
C 16.937  3.54105  4.97438
O -1.06295  -14.459  -4.97438
C 16.9256  3.48943  5.03425
O -1.07437  -14.5106  -5.03425
C 16.914  3.43853  5.09456
O -1.08595  -14.5615  -5.09456
C 16.9023  3.38832  5.15529
O -1.0977  -14.6117  -5.15529
C 16.8904  3.33879  5.21643
O -1.10962  -14.6612  -5.21643
C 16.8783  3.28994  5.27796
O -1.1217  -14.7101  -5.27796
C 16.866  3.24174  5.33986
O -1.13395  -14.7583  -5.33986
C 16.8536  3.19419  5.40212
O -1.14637  -14.8058  -5.40212
C 16.841  3.14726  5.46472
O -1.15896  -14.8527  -5.46472
C 16.8283  3.10095  5.52764
O -1.17173  -14.899  -5.52764
C 16.8153  3.05525  5.59087
O -1.18467  -14.9448  -5.59087
C 16.8022  3.01013  5.65439
O -1.19779  -14.9899  -5.65439
C 16.7889  2.9656  5.71819
O -1.2111  -15.0344  -5.71819
C 16.7754  2.92162  5.78225
O -1.2246  -15.0784  -5.78225
C 16.7617  2.87819  5.84656
O -1.2383  -15.1218  -5.84656
C 16.7478  2.8353  5.91111
O -1.2522  -15.1647  -5.91111
C 16.7337  2.79293  5.97587
O -1.26632  -15.2071  -5.97587
C 16.7194  2.75107  6.04084
O -1.28065  -15.2489  -6.04084
C 16.7048  2.70971  6.10601
O -1.29521  -15.2903  -6.10601
C 16.69  2.66884  6.17135
O -1.31  -15.3312  -6.17135
C 16.675  2.62843  6.23686
O -1.32503  -15.3716  -6.23686
C 16.6597  2.58848  6.30251
O -1.34032  -15.4115  -6.30251
C 16.6441  2.54899  6.36831
O -1.35586  -15.451  -6.36831
C 16.6283  2.50993  6.43423
O -1.37168  -15.4901  -6.43423
C 16.6122  2.47129  6.50026
O -1.38778  -15.5287  -6.50026
C 16.5958  2.43306  6.56639
O -1.40416  -15.5669  -6.56639
C 16.5792  2.39524  6.63261
O -1.42085  -15.6048  -6.63261
C 16.5622  2.35781  6.6989
O -1.43785  -15.6422  -6.6989
C 16.5448  2.32076  6.76525
O -1.45517  -15.6792  -6.76525
C 16.5272  2.28409  6.83164
O -1.47283  -15.7159  -6.83164
C 16.5092  2.24777  6.89807
O -1.49084  -15.7522  -6.89807
C 16.4908  2.21181  6.96453
O -1.50921  -15.7882  -6.96453
C 16.4721  2.17618  7.03099
O -1.52795  -15.8238  -7.03099
C 16.4529  2.14089  7.09745
O -1.54708  -15.8591  -7.09745
C 16.4334  2.10593  7.1639
O -1.56661  -15.8941  -7.1639
C 16.4134  2.07128  7.23031
O -1.58655  -15.9287  -7.23031
C 16.3931  2.03694  7.29669
O -1.60693  -15.9631  -7.29669
C 16.3723  2.0029  7.363
O -1.62775  -15.9971  -7.363
C 16.351  1.96915  7.42926
O -1.64903  -16.0308  -7.42926
C 16.3292  1.93569  7.49543
O -1.67079  -16.0643  -7.49543
C 16.307  1.9025  7.56151
O -1.69304  -16.0975  -7.56151
C 16.2842  1.86959  7.62748
O -1.7158  -16.1304  -7.62748
C 16.2609  1.83694  7.69333
O -1.7391  -16.1631  -7.69333
C 16.2371  1.80455  7.75905
O -1.76293  -16.1954  -7.75905
C 16.2127  1.77242  7.82462
O -1.78734  -16.2276  -7.82462
C 16.1877  1.74053  7.89003
O -1.81232  -16.2595  -7.89003
C 16.1621  1.70889  7.95527
O -1.83792  -16.2911  -7.95527
C 16.1359  1.67749  8.02031
O -1.86413  -16.3225  -8.02031
C 16.109  1.64632  8.08515
O -1.89099  -16.3537  -8.08515
C 16.0815  1.61538  8.14978
O -1.91852  -16.3846  -8.14978
C 16.0533  1.58467  8.21417
O -1.94674  -16.4153  -8.21417
C 16.0243  1.55418  8.27831
O -1.97567  -16.4458  -8.27831
C 15.9947  1.52391  8.34218
O -2.00533  -16.4761  -8.34218
C 15.9642  1.49387  8.40578
O -2.03575  -16.5061  -8.40578
C 15.933  1.46403  8.46908
O -2.06696  -16.536  -8.46908
C 15.901  1.43442  8.53207
O -2.09898  -16.5656  -8.53207
C 15.8682  1.40501  8.59473
O -2.13183  -16.595  -8.59473
C 15.8345  1.37582  8.65704
O -2.16554  -16.6242  -8.65704
C 15.7999  1.34684  8.71899
O -2.20014  -16.6532  -8.71899
C 15.7643  1.31808  8.78055
O -2.23566  -16.6819  -8.78055
C 15.7279  1.28952  8.84172
O -2.27213  -16.7105  -8.84172
C 15.6904  1.26118  8.90246
O -2.30957  -16.7388  -8.90246
C 15.652  1.23306  8.96277
O -2.34802  -16.7669  -8.96277
C 15.6125  1.20516  9.02262
O -2.3875  -16.7948  -9.02262
C 15.572  1.17747  9.08198
O -2.42805  -16.8225  -9.08198
C 15.5303  1.15001  9.14085
O -2.46969  -16.85  -9.14085
C 15.4875  1.12278  9.1992
O -2.51247  -16.8772  -9.1992
C 15.4436  1.09578  9.25701
O -2.55642  -16.9042  -9.25701
C 15.3984  1.06902  9.31425
O -2.60156  -16.931  -9.31425
C 15.3521  1.0425  9.37091
O -2.64793  -16.9575  -9.37091
C 15.3044  1.01622  9.42695
O -2.69556  -16.9838  -9.42695
C 15.2555  0.990208  9.48236
O -2.7445  -17.0098  -9.48236
C 15.2052  0.964454  9.53711
O -2.79477  -17.0355  -9.53711
C 15.1536  0.938973  9.59118
O -2.84641  -17.061  -9.59118
C 15.1006  0.913772  9.64454
O -2.89945  -17.0862  -9.64454
C 15.0461  0.888861  9.69715
O -2.95392  -17.1111  -9.69715
C 14.9901  0.864251  9.74901
O -3.00987  -17.1357  -9.74901
C 14.9327  0.839953  9.80007
O -3.06733  -17.16  -9.80007
C 14.8737  0.815978  9.85032
O -3.12632  -17.184  -9.85032
C 14.8131  0.79234  9.89971
O -3.18689  -17.2077  -9.89971
C 14.7509  0.769052  9.94823
O -3.24905  -17.2309  -9.94823
C 14.6871  0.746128  9.99585
O -3.31285  -17.2539  -9.99585
C 14.6217  0.723582  10.0425
O -3.37831  -17.2764  -10.0425
C 14.5545  0.701432  10.0882
O -3.44547  -17.2986  -10.0882
C 14.4857  0.679692  10.1329
O -3.51433  -17.3203  -10.1329
C 14.4151  0.65838  10.1766
O -3.58494  -17.3416  -10.1766
C 14.3427  0.637515  10.2192
O -3.65731  -17.3625  -10.2192
C 14.2685  0.617114  10.2607
O -3.73145  -17.3829  -10.2607
C 14.1926  0.597196  10.3011
O -3.80739  -17.4028  -10.3011
C 14.1149  0.577783  10.3404
O -3.88514  -17.4222  -10.3404
C 14.0353  0.558892  10.3784
O -3.96471  -17.4411  -10.3784
C 13.9539  0.540546  10.4152
O -4.04609  -17.4595  -10.4152
C 13.8707  0.522765  10.4507
O -4.1293  -17.4772  -10.4507
C 13.7857  0.50557  10.485
O -4.21433  -17.4944  -10.485
C 13.6988  0.488985  10.5179
O -4.30116  -17.511  -10.5179
C 13.6102  0.473029  10.5495
O -4.38979  -17.527  -10.5495
C 13.5198  0.457726  10.5797
O -4.4802  -17.5423  -10.5797
C 13.4276  0.443096  10.6084
O -4.57236  -17.5569  -10.6084
C 13.3338  0.429163  10.6357
O -4.66624  -17.5708  -10.6357
C 13.2382  0.415947  10.6615
O -4.76181  -17.5841  -10.6615
C 13.141  0.403468  10.6858
O -4.85901  -17.5965  -10.6858
C 13.0422  0.391749  10.7086
O -4.95781  -17.6083  -10.7086
C 12.9419  0.380808  10.7298
O -5.05815  -17.6192  -10.7298
C 12.84  0.370664  10.7494
O -5.15995  -17.6293  -10.7494
C 12.7368  0.361337  10.7674
O -5.26316  -17.6387  -10.7674
C 12.6323  0.352842  10.7837
O -5.3677  -17.6472  -10.7837
C 12.5265  0.345196  10.7984
O -5.47349  -17.6548  -10.7984
C 12.4196  0.338413  10.8114
O -5.58044  -17.6616  -10.8114
C 12.3115  0.332507  10.8227
O -5.68845  -17.6675  -10.8227
C 12.2026  0.32749  10.8323
O -5.79743  -17.6725  -10.8323
C 12.0927  0.32337  10.8401
O -5.90728  -17.6766  -10.8401
C 11.9821  0.320157  10.8462
O -6.01789  -17.6798  -10.8462
C 11.8709  0.317858  10.8506
O -6.12914  -17.6821  -10.8506
C 11.7591  0.316476  10.8533
O -6.24092  -17.6835  -10.8533
C 11.6469  0.316015  10.8541
O -6.35311  -17.684  -10.8541
C 11.5344  0.316476  10.8533
O -6.46559  -17.6835  -10.8533
C 11.4217  0.317858  10.8506
O -6.57825  -17.6821  -10.8506
C 11.309  0.320157  10.8462
O -6.69096  -17.6798  -10.8462
C 11.1964  0.32337  10.8401
O -6.8036  -17.6766  -10.8401
C 11.084  0.32749  10.8323
O -6.91604  -17.6725  -10.8323
C 10.9718  0.332507  10.8227
O -7.02817  -17.6675  -10.8227
C 10.8601  0.338414  10.8114
O -7.13987  -17.6616  -10.8114
C 10.749  0.345196  10.7984
O -7.25102  -17.6548  -10.7984
C 10.6385  0.352842  10.7837
O -7.36151  -17.6472  -10.7837
C 10.5288  0.361337  10.7674
O -7.47123  -17.6387  -10.7674
C 10.4199  0.370664  10.7494
O -7.58007  -17.6293  -10.7494
C 10.3121  0.380808  10.7298
O -7.68794  -17.6192  -10.7298
C 10.2053  0.391749  10.7086
O -7.79475  -17.6083  -10.7086
C 10.0996  0.403468  10.6858
O -7.90039  -17.5965  -10.6858
C 9.99522  0.415947  10.6615
O -8.00478  -17.5841  -10.6615
C 9.89215  0.429163  10.6357
O -8.10785  -17.5708  -10.6357
C 9.79049  0.443096  10.6084
O -8.20951  -17.5569  -10.6084
C 9.69029  0.457726  10.5797
O -8.30971  -17.5423  -10.5797
C 9.59163  0.473029  10.5495
O -8.40837  -17.527  -10.5495
C 9.49456  0.488985  10.5179
O -8.50544  -17.511  -10.5179
C 9.39913  0.50557  10.485
O -8.60087  -17.4944  -10.485
C 9.30539  0.522765  10.4507
O -8.69461  -17.4772  -10.4507
C 9.21338  0.540546  10.4152
O -8.78662  -17.4595  -10.4152
C 9.12314  0.558892  10.3784
O -8.87686  -17.4411  -10.3784
C 9.03469  0.577782  10.3404
O -8.96531  -17.4222  -10.3404
C 8.94807  0.597197  10.3011
O -9.05193  -17.4028  -10.3011
C 8.8633  0.617114  10.2607
O -9.1367  -17.3829  -10.2607
C 8.78039  0.637515  10.2192
O -9.21961  -17.3625  -10.2192
C 8.69936  0.65838  10.1766
O -9.30064  -17.3416  -10.1766
C 8.62023  0.679692  10.1329
O -9.37977  -17.3203  -10.1329
C 8.54298  0.701431  10.0882
O -9.45702  -17.2986  -10.0882
C 8.46764  0.723582  10.0425
O -9.53236  -17.2764  -10.0425
C 8.3942  0.746128  9.99585
O -9.6058  -17.2539  -9.99585
C 8.32266  0.769052  9.94823
O -9.67734  -17.2309  -9.94823
C 8.25301  0.79234  9.89971
O -9.74699  -17.2077  -9.89971
C 8.18526  0.815978  9.85032
O -9.81474  -17.184  -9.85032
C 8.11938  0.839953  9.80007
O -9.88062  -17.16  -9.80007
C 8.05538  0.864251  9.74901
O -9.94462  -17.1357  -9.74901
C 7.99323  0.888861  9.69715
O -10.0068  -17.1111  -9.69715
C 7.93293  0.913772  9.64454
O -10.0671  -17.0862  -9.64454
C 7.87447  0.938973  9.59118
O -10.1255  -17.061  -9.59118
C 7.81782  0.964454  9.53711
O -10.1822  -17.0355  -9.53711
C 7.76298  0.990208  9.48236
O -10.237  -17.0098  -9.48236
C 7.70992  1.01622  9.42695
O -10.2901  -16.9838  -9.42695
C 7.65863  1.0425  9.37091
O -10.3414  -16.9575  -9.37091
C 7.60908  1.06902  9.31425
O -10.3909  -16.931  -9.31425
C 7.56128  1.09578  9.25701
O -10.4387  -16.9042  -9.25701
C 7.51518  1.12278  9.1992
O -10.4848  -16.8772  -9.1992
C 7.47079  1.15001  9.14085
O -10.5292  -16.85  -9.14085
C 7.42807  1.17747  9.08198
O -10.5719  -16.8225  -9.08198
C 7.38702  1.20516  9.02262
O -10.613  -16.7948  -9.02262
C 7.34761  1.23306  8.96277
O -10.6524  -16.7669  -8.96277
C 7.30982  1.26118  8.90246
O -10.6902  -16.7388  -8.90246
C 7.27365  1.28952  8.84172
O -10.7264  -16.7105  -8.84172
C 7.23907  1.31808  8.78055
O -10.7609  -16.6819  -8.78055
C 7.20606  1.34684  8.71899
O -10.7939  -16.6532  -8.71899
C 7.17461  1.37582  8.65704
O -10.8254  -16.6242  -8.65704
C 7.14471  1.40501  8.59473
O -10.8553  -16.595  -8.59473
C 7.11633  1.43442  8.53207
O -10.8837  -16.5656  -8.53207
C 7.08947  1.46403  8.46908
O -10.9105  -16.536  -8.46908
C 7.06411  1.49387  8.40578
O -10.9359  -16.5061  -8.40578
C 7.04025  1.52391  8.34218
O -10.9598  -16.4761  -8.34218
C 7.01785  1.55418  8.27831
O -10.9821  -16.4458  -8.27831
C 6.99692  1.58467  8.21417
O -11.0031  -16.4153  -8.21417
C 6.97744  1.61538  8.14978
O -11.0226  -16.3846  -8.14978
C 6.95941  1.64632  8.08515
O -11.0406  -16.3537  -8.08515
C 6.94281  1.67749  8.02031
O -11.0572  -16.3225  -8.02031
C 6.92763  1.70889  7.95527
O -11.0724  -16.2911  -7.95527
C 6.91387  1.74053  7.89003
O -11.0861  -16.2595  -7.89003
C 6.90152  1.77242  7.82462
O -11.0985  -16.2276  -7.82462
C 6.89056  1.80455  7.75905
O -11.1094  -16.1954  -7.75905
C 6.88101  1.83694  7.69333
O -11.119  -16.1631  -7.69333
C 6.87284  1.86959  7.62748
O -11.1272  -16.1304  -7.62748
C 6.86607  1.9025  7.56151
O -11.1339  -16.0975  -7.56151
C 6.86067  1.93569  7.49543
O -11.1393  -16.0643  -7.49543
C 6.85666  1.96915  7.42926
O -11.1433  -16.0308  -7.42926
C 6.85403  2.0029  7.363
O -11.146  -15.9971  -7.363
C 6.85277  2.03694  7.29669
O -11.1472  -15.9631  -7.29669
C 6.8529  2.07128  7.23031
O -11.1471  -15.9287  -7.23031
C 6.8544  2.10593  7.1639
O -11.1456  -15.8941  -7.1639
C 6.85728  2.14089  7.09745
O -11.1427  -15.8591  -7.09745
C 6.86155  2.17618  7.03099
O -11.1385  -15.8238  -7.03099
C 6.8672  2.21181  6.96453
O -11.1328  -15.7882  -6.96453
C 6.87424  2.24777  6.89807
O -11.1258  -15.7522  -6.89807
C 6.88268  2.28409  6.83164
O -11.1173  -15.7159  -6.83164
C 6.89252  2.32076  6.76525
O -11.1075  -15.6792  -6.76525
C 6.90377  2.35781  6.6989
O -11.0962  -15.6422  -6.6989
C 6.91643  2.39524  6.63261
O -11.0836  -15.6048  -6.63261
C 6.93052  2.43306  6.56639
O -11.0695  -15.5669  -6.56639
C 6.94604  2.47129  6.50026
O -11.054  -15.5287  -6.50026
