5192
ksi&psi trajectory with 10 & 10 deg step !! manualy cropped, in 10th degrees !!
U -18 -18 -10
W 18 - 18 - 10
F - 18 18 - 10
H - 18 - 18 10
B - 18 18 10
B 18 - 18 10
B 18 18 - 10
B 18 18 10
C 11.0816  0  0
O 11.0816  0  -0
C 11.0816  0  1
O -6.91842  -18  -1
C 11.0816  0  2
O -6.91842  -18  -2
C 11.0816  0  3
O -6.91842  -18  -3
C 11.0816  0  4
O -6.91842  -18  -4
C 11.0816  0  5
O -6.91842  -18  -5
C 11.0816  0  6
O -6.91842  -18  -6
C 11.0816  0  7
O -6.91842  -18  -7
C 11.0816  0  8
O -6.91842  -18  -8
C 11.0816  0  9
O -6.91842  -18  -9
C 11.0816  0  10
O -6.91842  -18  -10
C 11.0816  0  11
O -6.91842  -18  -11
C 11.0816  0  12
O -6.91842  -18  -12
C 11.0816  0  13
O -6.91842  -18  -13
C 11.0816  0  14
O -6.91842  -18  -14
C 11.0816  0  15
O -6.91842  -18  -15
C 11.0816  0  16
O -6.91842  -18  -16
C 11.0816  0  17
O -6.91842  -18  -17
C 11.0816  0  18
O 11.0816  0  -18
C -6.91842  18  17
O 11.0816  -0  -17
C -6.91842  18  16
O 11.0816  -0  -16
C -6.91842  18  15
O 11.0816  -0  -15
C -6.91842  18  14
O 11.0816  -0  -14
C -6.91842  18  13
O 11.0816  -0  -13
C -6.91842  18  12
O 11.0816  -0  -12
C -6.91842  18  11
O 11.0816  -0  -11
C -6.91842  18  10
O 11.0816  -0  -10
C -6.91842  18  9
O 11.0816  -0  -9
C -6.91842  18  8
O 11.0816  -0  -8
C -6.91842  18  7
O 11.0816  -0  -7
C -6.91842  18  6
O 11.0816  -0  -6
C -6.91842  18  5
O 11.0816  -0  -5
C -6.91842  18  4
O 11.0816  -0  -4
C -6.91842  18  3
O 11.0816  -0  -3
C -6.91842  18  2
O 11.0816  -0  -2
C -6.91842  18  1
O 11.0816  -0  -1
C 11.0816  0  0
O 11.0816  0  -0
C -15.8891  9  0.934122
O 2.11088  -9  -0.934122
C 15.3739  4.34495  1.36517
O -2.62608  -13.6551  -1.36517
C 13.5143  2.56853  2.19927
O -4.48565  -15.4315  -2.19927
C 12.6811  1.82107  3.12909
O -5.31886  -16.1789  -3.12909
C 12.2057  1.43544  4.08971
O -5.79432  -16.5646  -4.08971
C 11.8865  1.21193  5.06346
O -6.11353  -16.7881  -5.06346
C 11.6463  1.07548  6.04377
O -6.35375  -16.9245  -6.04377
C 11.449  0.992914  7.02763
O -6.55102  -17.0071  -7.02763
C 11.2748  0.948273  8.01339
O -6.72518  -17.0517  -8.01339
C 11.1109  0.934122  9
O -6.88912  -17.0659  -9
C 10.9469  0.948273  9.98661
O -7.05305  -17.0517  -9.98661
C 10.7728  0.992914  10.9724
O -7.22721  -17.0071  -10.9724
C 10.5755  1.07548  11.9562
O -7.42448  -16.9245  -11.9562
C 10.3353  1.21193  12.9365
O -7.6647  -16.7881  -12.9365
C 10.0161  1.43544  13.9103
O -7.98391  -16.5646  -13.9103
C 9.54063  1.82107  14.8709
O -8.45937  -16.1789  -14.8709
C 8.70742  2.56853  15.8007
O -9.29258  -15.4315  -15.8007
C 6.84784  4.34495  16.6348
O -11.1522  -13.6551  -16.6348
C 2.11088  9  17.0659
O -15.8891  -9  -17.0659
C -2.62608  13.6551  16.6348
O 15.3739  -4.34495  -16.6348
C -4.48565  15.4315  15.8007
O 13.5143  -2.56853  -15.8007
C -5.31886  16.1789  14.8709
O 12.6811  -1.82107  -14.8709
C -5.79432  16.5646  13.9103
O 12.2057  -1.43544  -13.9103
C -6.11353  16.7881  12.9365
O 11.8865  -1.21193  -12.9365
C -6.35375  16.9245  11.9562
O 11.6463  -1.07548  -11.9562
C -6.55102  17.0071  10.9724
O 11.449  -0.992914  -10.9724
C -6.72518  17.0517  9.98661
O 11.2748  -0.948273  -9.98661
C -6.88912  17.0659  9
O 11.1109  -0.934122  -9
C -7.05305  17.0517  8.01339
O 10.9469  -0.948273  -8.01339
C -7.22721  17.0071  7.02763
O 10.7728  -0.992914  -7.02763
C -7.42448  16.9245  6.04377
O 10.5755  -1.07548  -6.04377
C -7.6647  16.7881  5.06346
O 10.3353  -1.21193  -5.06346
C -7.98391  16.5646  4.08971
O 10.0161  -1.43544  -4.08971
C -8.45937  16.1789  3.12909
O 9.54063  -1.82107  -3.12909
C -9.29258  15.4315  2.19927
O 8.70742  -2.56853  -2.19927
C -11.1522  13.6551  1.36517
O 6.84784  -4.34495  -1.36517
C -15.8891  9  0.934122
O 2.11088  -9  -0.934122
C -15.7973  9  1.86445
O 2.20272  -9  -1.86445
C 17.3148  6.27668  2.10726
O -0.685153  -11.7233  -2.10726
C 15.3322  4.46106  2.70792
O -2.66781  -13.5389  -2.70792
C 14.1002  3.40117  3.48574
O -3.89982  -14.5988  -3.48574
C 13.2884  2.76952  4.3461
O -4.7116  -15.2305  -4.3461
C 12.7044  2.3771  5.24788
O -5.29563  -15.6229  -5.24788
C 12.2485  2.12858  6.17213
O -5.7515  -15.8714  -6.17213
C 11.8664  1.9751  7.10907
O -6.13357  -16.0249  -7.10907
C 11.5254  1.89118  8.05298
O -6.47464  -16.1088  -8.05298
C 11.2027  1.86445  9
O -6.79728  -16.1355  -9
C 10.8801  1.89118  9.94702
O -7.11992  -16.1088  -9.94702
C 10.539  1.9751  10.8909
O -7.46098  -16.0249  -10.8909
C 10.1569  2.12858  11.8279
O -7.84305  -15.8714  -11.8279
C 9.70108  2.3771  12.7521
O -8.29892  -15.6229  -12.7521
C 9.11705  2.76952  13.6539
O -8.88295  -15.2305  -13.6539
C 8.30527  3.40117  14.5143
O -9.69473  -14.5988  -14.5143
C 7.07326  4.46106  15.2921
O -10.9267  -13.5389  -15.2921
C 5.0906  6.27668  15.8927
O -12.9094  -11.7233  -15.8927
C 2.20272  9  16.1355
O -15.7973  -9  -16.1355
C -0.685153  11.7233  15.8927
O 17.3148  -6.27668  -15.8927
C -2.66781  13.5389  15.2921
O 15.3322  -4.46106  -15.2921
C -3.89982  14.5988  14.5143
O 14.1002  -3.40117  -14.5143
C -4.7116  15.2305  13.6539
O 13.2884  -2.76952  -13.6539
C -5.29563  15.6229  12.7521
O 12.7044  -2.3771  -12.7521
C -5.7515  15.8714  11.8279
O 12.2485  -2.12858  -11.8279
C -6.13357  16.0249  10.8909
O 11.8664  -1.9751  -10.8909
C -6.47464  16.1088  9.94702
O 11.5254  -1.89118  -9.94702
C -6.79728  16.1355  9
O 11.2027  -1.86445  -9
C -7.11992  16.1088  8.05298
O 10.8801  -1.89118  -8.05298
C -7.46098  16.0249  7.10907
O 10.539  -1.9751  -7.10907
C -7.84305  15.8714  6.17213
O 10.1569  -2.12858  -6.17213
C -8.29892  15.6229  5.24788
O 9.70108  -2.3771  -5.24788
C -8.88295  15.2305  4.3461
O 9.11705  -2.76952  -4.3461
C -9.69473  14.5988  3.48574
O 8.30527  -3.40117  -3.48574
C -10.9267  13.5389  2.70792
O 7.07326  -4.46106  -2.70792
C -12.9094  11.7233  2.10726
O 5.0906  -6.27668  -2.10726
C -15.7973  9  1.86445
O 2.20272  -9  -1.86445
C -15.6299  9  2.78633
O 2.37012  -9  -2.78633
C -17.6969  7.18161  2.94676
O 0.303072  -10.8184  -2.94676
C 16.5791  5.70985  3.38242
O -1.42093  -12.2901  -3.38242
C 15.2691  4.65956  4.00376
O -2.73087  -13.3404  -4.00376
C 14.2818  3.94352  4.73722
O -3.71818  -14.0565  -4.73722
C 13.5115  3.46099  5.53706
O -4.48854  -14.539  -5.53706
C 12.8802  3.14014  6.37664
O -5.11982  -14.8599  -6.37664
C 12.3355  2.93613  7.24001
O -5.66448  -15.0639  -7.24001
C 11.8412  2.82273  8.11692
O -6.15878  -15.1773  -8.11692
C 11.3701  2.78633  9
O -6.62988  -15.2137  -9
C 10.899  2.82273  9.88308
O -7.10098  -15.1773  -9.88308
C 10.4047  2.93613  10.76
O -7.59528  -15.0639  -10.76
C 9.86006  3.14014  11.6234
O -8.13994  -14.8599  -11.6234
C 9.22878  3.46099  12.4629
O -8.77122  -14.539  -12.4629
C 8.45842  3.94352  13.2628
O -9.54158  -14.0565  -13.2628
C 7.47111  4.65956  13.9962
O -10.5289  -13.3404  -13.9962
C 6.16117  5.70985  14.6176
O -11.8388  -12.2901  -14.6176
C 4.43717  7.18161  15.0532
O -13.5628  -10.8184  -15.0532
C 2.37012  9  15.2137
O -15.6299  -9  -15.2137
C 0.303072  10.8184  15.0532
O -17.6969  -7.18161  -15.0532
C -1.42093  12.2901  14.6176
O 16.5791  -5.70985  -14.6176
C -2.73087  13.3404  13.9962
O 15.2691  -4.65956  -13.9962
C -3.71818  14.0565  13.2628
O 14.2818  -3.94352  -13.2628
C -4.48854  14.539  12.4629
O 13.5115  -3.46099  -12.4629
C -5.11982  14.8599  11.6234
O 12.8802  -3.14014  -11.6234
C -5.66448  15.0639  10.76
O 12.3355  -2.93613  -10.76
C -6.15878  15.1773  9.88308
O 11.8412  -2.82273  -9.88308
C -6.62988  15.2137  9
O 11.3701  -2.78633  -9
C -7.10098  15.1773  8.11692
O 10.899  -2.82273  -8.11692
C -7.59528  15.0639  7.24001
O 10.4047  -2.93613  -7.24001
C -8.13994  14.8599  6.37664
O 9.86006  -3.14014  -6.37664
C -8.77122  14.539  5.53706
O 9.22878  -3.46099  -5.53706
C -9.54158  14.0565  4.73722
O 8.45842  -3.94352  -4.73722
C -10.5289  13.3404  4.00376
O 7.47111  -4.65956  -4.00376
C -11.8388  12.2901  3.38242
O 6.16117  -5.70985  -3.38242
C -13.5628  10.8184  2.94676
O 4.43717  -7.18161  -2.94676
C -15.6299  9  2.78633
O 2.37012  -9  -2.78633
C -15.3605  9  3.69295
O 2.63947  -9  -3.69295
C -16.9961  7.69912  3.80725
O 1.00393  -10.3009  -3.80725
C 17.5188  6.55325  4.13084
O -0.48118  -11.4467  -4.13084
C 16.2536  5.63672  4.61892
O -1.74635  -12.3633  -4.61892
C 15.1999  4.94631  5.22398
O -2.8001  -13.0537  -5.22398
C 14.315  4.44557  5.90808
O -3.685  -13.5544  -5.90808
C 13.5526  4.09548  6.64413
O -4.44741  -13.9045  -6.64413
C 12.873  3.8655  7.41332
O -5.12697  -14.1345  -7.41332
C 12.2442  3.73516  8.2021
O -5.75577  -14.2648  -8.2021
C 11.6395  3.69295  9
O -6.36053  -14.3071  -9
C 11.0347  3.73516  9.7979
O -6.96528  -14.2648  -9.7979
C 10.4059  3.8655  10.5867
O -7.59408  -14.1345  -10.5867
C 9.72636  4.09548  11.3559
O -8.27364  -13.9045  -11.3559
C 8.96395  4.44557  12.0919
O -9.03605  -13.5544  -12.0919
C 8.07905  4.94631  12.776
O -9.92095  -13.0537  -12.776
C 7.0253  5.63672  13.3811
O -10.9747  -12.3633  -13.3811
C 5.76013  6.55325  13.8692
O -12.2399  -11.4467  -13.8692
C 4.27502  7.69912  14.1928
O -13.725  -10.3009  -14.1928
C 2.63947  9  14.3071
O -15.3605  -9  -14.3071
C 1.00393  10.3009  14.1928
O -16.9961  -7.69912  -14.1928
C -0.48118  11.4467  13.8692
O 17.5188  -6.55325  -13.8692
C -1.74635  12.3633  13.3811
O 16.2536  -5.63672  -13.3811
C -2.8001  13.0537  12.776
O 15.1999  -4.94631  -12.776
C -3.685  13.5544  12.0919
O 14.315  -4.44557  -12.0919
C -4.44741  13.9045  11.3559
O 13.5526  -4.09548  -11.3559
C -5.12697  14.1345  10.5867
O 12.873  -3.8655  -10.5867
C -5.75577  14.2648  9.7979
O 12.2442  -3.73516  -9.7979
C -6.36053  14.3071  9
O 11.6395  -3.69295  -9
C -6.96528  14.2648  8.2021
O 11.0347  -3.73516  -8.2021
C -7.59408  14.1345  7.41332
O 10.4059  -3.8655  -7.41332
C -8.27364  13.9045  6.64413
O 9.72636  -4.09548  -6.64413
C -9.03605  13.5544  5.90808
O 8.96395  -4.44557  -5.90808
C -9.92095  13.0537  5.22398
O 8.07905  -4.94631  -5.22398
C -10.9747  12.3633  4.61892
O 7.0253  -5.63672  -4.61892
C -12.2399  11.4467  4.13084
O 5.76013  -6.55325  -4.13084
C -13.725  10.3009  3.80725
O 4.27502  -7.69912  -3.80725
C -15.3605  9  3.69295
O 2.63947  -9  -3.69295
C -14.9398  9  4.57287
O 3.06024  -9  -4.57287
C -16.3232  8.03917  4.65713
O 1.67685  -9.96083  -4.65713
C -17.6342  7.15601  4.90076
O 0.365784  -10.844  -4.90076
C 17.1723  6.40135  5.28046
O -0.827704  -11.5986  -5.28046
C 16.1078  5.7927  5.76736
O -1.89219  -12.2073  -5.76736
C 15.1601  5.32476  6.33396
O -2.83988  -12.6752  -6.33396
C 14.3063  4.98266  6.95721
O -3.6937  -13.0173  -6.95721
C 13.521  4.75076  7.61873
O -4.47902  -13.2492  -7.61873
C 12.7798  4.61671  8.30377
O -5.22016  -13.3833  -8.30377
C 12.0602  4.57287  9
O -5.93976  -13.4271  -9
C 11.3406  4.61671  9.69623
O -6.65935  -13.3833  -9.69623
C 10.5995  4.75076  10.3813
O -7.4005  -13.2492  -10.3813
C 9.81419  4.98266  11.0428
O -8.18581  -13.0173  -11.0428
C 8.96037  5.32476  11.666
O -9.03963  -12.6752  -11.666
C 8.01268  5.7927  12.2326
O -9.98732  -12.2073  -12.2326
C 6.94819  6.40135  12.7195
O -11.0518  -11.5986  -12.7195
C 5.7547  7.15601  13.0992
O -12.2453  -10.844  -13.0992
C 4.44364  8.03917  13.3429
O -13.5564  -9.96083  -13.3429
C 3.06024  9  13.4271
O -14.9398  -9  -13.4271
C 1.67685  9.96083  13.3429
O -16.3232  -8.03917  -13.3429
C 0.365784  10.844  13.0992
O -17.6342  -7.15601  -13.0992
C -0.827704  11.5986  12.7195
O 17.1723  -6.40135  -12.7195
C -1.89219  12.2073  12.2326
O 16.1078  -5.7927  -12.2326
C -2.83988  12.6752  11.666
O 15.1601  -5.32476  -11.666
C -3.6937  13.0173  11.0428
O 14.3063  -4.98266  -11.0428
C -4.47902  13.2492  10.3813
O 13.521  -4.75076  -10.3813
C -5.22016  13.3833  9.69623
O 12.7798  -4.61671  -9.69623
C -5.93976  13.4271  9
O 12.0602  -4.57287  -9
C -6.65935  13.3833  8.30377
O 11.3406  -4.61671  -8.30377
C -7.4005  13.2492  7.61873
O 10.5995  -4.75076  -7.61873
C -8.18581  13.0173  6.95721
O 9.81419  -4.98266  -6.95721
C -9.03963  12.6752  6.33396
O 8.96037  -5.32476  -6.33396
C -9.98732  12.2073  5.76736
O 8.01268  -5.7927  -5.76736
C -11.0518  11.5986  5.28046
O 6.94819  -6.40135  -5.28046
C -12.2453  10.844  4.90076
O 5.7547  -7.15601  -4.90076
C -13.5564  9.96083  4.65713
O 4.44364  -8.03917  -4.65713
C -14.9398  9  4.57287
O 3.06024  -9  -4.57287
C -14.2752  9  5.40469
O 3.72479  -9  -5.40469
C -15.504  8.28216  5.46757
O 2.49596  -9.71784  -5.46757
C -16.6962  7.60682  5.65153
O 1.30381  -10.3932  -5.65153
C -17.8249  7.0067  5.94385
O 0.175069  -10.9933  -5.94385
C 17.1219  6.50046  6.32716
O -0.878075  -11.4995  -6.32716
C 16.1434  6.09432  6.78276
O -1.85658  -11.9057  -6.78276
C 15.2298  5.78662  7.29287
O -2.77024  -12.2134  -7.29287
C 14.3665  5.57235  7.84158
O -3.63354  -12.4276  -7.84158
C 13.5371  5.44628  8.41484
O -4.46288  -12.5537  -8.41484
C 12.7248  5.40469  9
O -5.27521  -12.5953  -9
C 11.9125  5.44628  9.58516
O -6.08754  -12.5537  -9.58516
C 11.0831  5.57235  10.1584
O -6.91688  -12.4276  -10.1584
C 10.2198  5.78662  10.7071
O -7.78018  -12.2134  -10.7071
C 9.30616  6.09432  11.2172
O -8.69384  -11.9057  -11.2172
C 8.32766  6.50046  11.6728
O -9.67234  -11.4995  -11.6728
C 7.27452  7.0067  12.0562
O -10.7255  -10.9933  -12.0562
C 6.14578  7.60682  12.3485
O -11.8542  -10.3932  -12.3485
C 4.95363  8.28216  12.5324
O -13.0464  -9.71784  -12.5324
C 3.72479  9  12.5953
O -14.2752  -9  -12.5953
C 2.49596  9.71784  12.5324
O -15.504  -8.28216  -12.5324
C 1.30381  10.3932  12.3485
O -16.6962  -7.60682  -12.3485
C 0.175069  10.9933  12.0562
O -17.8249  -7.0067  -12.0562
C -0.878075  11.4995  11.6728
O 17.1219  -6.50046  -11.6728
C -1.85658  11.9057  11.2172
O 16.1434  -6.09432  -11.2172
C -2.77024  12.2134  10.7071
O 15.2298  -5.78662  -10.7071
C -3.63354  12.4276  10.1584
O 14.3665  -5.57235  -10.1584
C -4.46288  12.5537  9.58516
O 13.5371  -5.44628  -9.58516
C -5.27521  12.5953  9
O 12.7248  -5.40469  -9
C -6.08754  12.5537  8.41484
O 11.9125  -5.44628  -8.41484
C -6.91688  12.4276  7.84158
O 11.0831  -5.57235  -7.84158
C -7.78018  12.2134  7.29287
O 10.2198  -5.78662  -7.29287
C -8.69384  11.9057  6.78276
O 9.30616  -6.09432  -6.78276
C -9.67234  11.4995  6.32716
O 8.32766  -6.50046  -6.32716
C -10.7255  10.9933  5.94385
O 7.27452  -7.0067  -5.94385
C -11.8542  10.3932  5.65153
O 6.14578  -7.60682  -5.65153
C -13.0464  9.71784  5.46757
O 4.95363  -8.28216  -5.46757
C -14.2752  9  5.40469
O 3.72479  -9  -5.40469
C -13.1975  9  6.14448
O 4.80246  -9  -6.14448
C -14.3326  8.46016  6.19174
O 3.66736  -9.53984  -6.19174
C -15.4483  7.94562  6.3309
O 2.55167  -10.0544  -6.3309
C -16.5293  7.47782  6.55458
O 1.47074  -10.5222  -6.55458
C -17.5666  7.07198  6.85202
O 0.433404  -10.928  -6.85202
C 17.4416  6.73695  7.2106
O -0.55841  -11.2631  -7.2106
C 16.4915  6.47657  7.61723
O -1.50849  -11.5234  -7.61723
C 15.5753  6.29155  8.05906
O -2.42465  -11.7085  -8.05906
C 14.6829  6.18115  8.52387
O -3.31715  -11.8189  -8.52387
C 13.8025  6.14448  9
O -4.19754  -11.8555  -9
C 12.9221  6.18115  9.47613
O -5.07793  -11.8189  -9.47613
C 12.0296  6.29155  9.94094
O -5.97042  -11.7085  -9.94094
C 11.1134  6.47657  10.3828
O -6.88658  -11.5234  -10.3828
C 10.1633  6.73695  10.7894
O -7.83667  -11.2631  -10.7894
C 9.17152  7.07198  11.148
O -8.82848  -10.928  -11.148
C 8.13418  7.47782  11.4454
O -9.86582  -10.5222  -11.4454
C 7.05326  7.94562  11.6691
O -10.9467  -10.0544  -11.6691
C 5.93757  8.46016  11.8083
O -12.0624  -9.53984  -11.8083
C 4.80246  9  11.8555
O -13.1975  -9  -11.8555
C 3.66736  9.53984  11.8083
O -14.3326  -8.46016  -11.8083
C 2.55167  10.0544  11.6691
O -15.4483  -7.94562  -11.6691
C 1.47074  10.5222  11.4454
O -16.5293  -7.47782  -11.4454
C 0.433404  10.928  11.148
O -17.5666  -7.07198  -11.148
C -0.55841  11.2631  10.7894
O 17.4416  -6.73695  -10.7894
C -1.50849  11.5234  10.3828
O 16.4915  -6.47657  -10.3828
C -2.42465  11.7085  9.94094
O 15.5753  -6.29155  -9.94094
C -3.31715  11.8189  9.47613
O 14.6829  -6.18115  -9.47613
C -4.19754  11.8555  9
O 13.8025  -6.14448  -9
C -5.07793  11.8189  8.52387
O 12.9221  -6.18115  -8.52387
C -5.97042  11.7085  8.05906
O 12.0296  -6.29155  -8.05906
C -6.88658  11.5234  7.61723
O 11.1134  -6.47657  -7.61723
C -7.83667  11.2631  7.2106
O 10.1633  -6.73695  -7.2106
C -8.82848  10.928  6.85202
O 9.17152  -7.07198  -6.85202
C -9.86582  10.5222  6.55458
O 8.13418  -7.47782  -6.55458
C -10.9467  10.0544  6.3309
O 7.05326  -7.94562  -6.3309
C -12.0624  9.53984  6.19174
O 5.93757  -8.46016  -6.19174
C -13.1975  9  6.14448
O 4.80246  -9  -6.14448
C -11.4549  9  6.70032
O 6.54513  -9  -6.70032
C -12.5392  8.57851  6.73722
O 5.46077  -9.42149  -6.73722
C -13.6122  8.17409  6.8462
O 4.38778  -9.82591  -6.8462
C -14.6644  7.80193  7.02244
O 3.33556  -10.1981  -7.02244
C -15.6899  7.47408  7.25858
O 2.31008  -10.5259  -7.25858
C -16.6866  7.19899  7.5456
O 1.31343  -10.801  -7.5456
C -17.656  6.98192  7.87354
O 0.344049  -11.0181  -7.87354
C 17.3974  6.82572  8.23212
O -0.602552  -11.1743  -8.23212
C 16.4671  6.7317  8.611
O -1.53292  -11.2683  -8.611
C 15.5451  6.70032  9
O -2.45487  -11.2997  -9
C 14.6232  6.7317  9.389
O -3.37681  -11.2683  -9.389
C 13.6928  6.82572  9.76788
O -4.30718  -11.1743  -9.76788
C 12.7462  6.98192  10.1265
O -5.25378  -11.0181  -10.1265
C 11.7768  7.19899  10.4544
O -6.22317  -10.801  -10.4544
C 10.7802  7.47408  10.7414
O -7.21981  -10.5259  -10.7414
C 9.75471  7.80193  10.9776
O -8.24529  -10.1981  -10.9776
C 8.70249  8.17409  11.1538
O -9.29751  -9.82591  -11.1538
C 7.6295  8.57851  11.2628
O -10.3705  -9.42149  -11.2628
C 6.54513  9  11.2997
O -11.4549  -9  -11.2997
C 5.46077  9.42149  11.2628
O -12.5392  -8.57851  -11.2628
C 4.38778  9.82591  11.1538
O -13.6122  -8.17409  -11.1538
C 3.33556  10.1981  10.9776
O -14.6644  -7.80193  -10.9776
C 2.31008  10.5259  10.7414
O -15.6899  -7.47408  -10.7414
C 1.31343  10.801  10.4544
O -16.6866  -7.19899  -10.4544
C 0.344049  11.0181  10.1265
O -17.656  -6.98192  -10.1265
C -0.602552  11.1743  9.76788
O 17.3974  -6.82572  -9.76788
C -1.53292  11.2683  9.389
O 16.4671  -6.7317  -9.389
C -2.45487  11.2997  9
O 15.5451  -6.70032  -9
C -3.37681  11.2683  8.611
O 14.6232  -6.7317  -8.611
C -4.30718  11.1743  8.23212
O 13.6928  -6.82572  -8.23212
C -5.25378  11.0181  7.87354
O 12.7462  -6.98192  -7.87354
C -6.22317  10.801  7.5456
O 11.7768  -7.19899  -7.5456
C -7.21981  10.5259  7.25858
O 10.7802  -7.47408  -7.25858
C -8.24529  10.1981  7.02244
O 9.75471  -7.80193  -7.02244
C -9.29751  9.82591  6.8462
O 8.70249  -8.17409  -6.8462
C -10.3705  9.42149  6.73722
O 7.6295  -8.57851  -6.73722
C -11.4549  9  6.70032
O 6.54513  -9  -6.70032
C -9  9  6.91842
O 9  -9  -6.91842
C -10.0683  8.6223  6.95148
O 7.93173  -9.3777  -6.95148
C -11.1275  8.25914  7.04923
O 6.87247  -9.74086  -7.04923
C -12.1702  7.9237  7.2076
O 5.82977  -10.0763  -7.2076
C -13.1914  7.62675  7.42033
O 4.80859  -10.3733  -7.42033
C -14.1892  7.37626  7.67957
O 3.81081  -10.6237  -7.67957
C -15.1646  7.17761  7.97652
O 2.83542  -10.8224  -7.97652
C -16.1211  7.03406  8.30189
O 1.8789  -10.9659  -8.30189
C -17.0641  6.94739  8.64621
O 0.935922  -11.0526  -8.64621
C 18  6.91842  9
O -0  -11.0816  -9
C 17.0641  6.94739  9.35379
O -0.935922  -11.0526  -9.35379
C 16.1211  7.03406  9.69811
O -1.8789  -10.9659  -9.69811
C 15.1646  7.17761  10.0235
O -2.83542  -10.8224  -10.0235
C 14.1892  7.37626  10.3204
O -3.81081  -10.6237  -10.3204
C 13.1914  7.62675  10.5797
O -4.80859  -10.3733  -10.5797
C 12.1702  7.9237  10.7924
O -5.82977  -10.0763  -10.7924
C 11.1275  8.25914  10.9508
O -6.87247  -9.74086  -10.9508
C 10.0683  8.6223  11.0485
O -7.93173  -9.3777  -11.0485
C 9  9  11.0816
O -9  -9  -11.0816
C 7.93173  9.3777  11.0485
O -10.0683  -8.6223  -11.0485
C 6.87247  9.74086  10.9508
O -11.1275  -8.25914  -10.9508
C 5.82977  10.0763  10.7924
O -12.1702  -7.9237  -10.7924
C 4.80859  10.3733  10.5797
O -13.1914  -7.62675  -10.5797
C 3.81081  10.6237  10.3204
O -14.1892  -7.37626  -10.3204
C 2.83542  10.8224  10.0235
O -15.1646  -7.17761  -10.0235
C 1.8789  10.9659  9.69811
O -16.1211  -7.03406  -9.69811
C 0.935922  11.0526  9.35379
O -17.0641  -6.94739  -9.35379
C 0  11.0816  9
O -18  -6.91842  -9
C -0.935922  11.0526  8.64621
O 17.0641  -6.94739  -8.64621
C -1.8789  10.9659  8.30189
O 16.1211  -7.03406  -8.30189
C -2.83542  10.8224  7.97652
O 15.1646  -7.17761  -7.97652
C -3.81081  10.6237  7.67957
O 14.1892  -7.37626  -7.67957
C -4.80859  10.3733  7.42033
O 13.1914  -7.62675  -7.42033
C -5.82977  10.0763  7.2076
O 12.1702  -7.9237  -7.2076
C -6.87247  9.74086  7.04923
O 11.1275  -8.25914  -7.04923
C -7.93173  9.3777  6.95148
O 10.0683  -8.6223  -6.95148
C -9  9  6.91842
O 9  -9  -6.91842
C -6.54513  9  6.70032
O 11.4549  -9  -6.70032
C -7.6295  8.57851  6.73722
O 10.3705  -9.42149  -6.73722
C -8.70249  8.17409  6.8462
O 9.29751  -9.82591  -6.8462
C -9.75471  7.80193  7.02244
O 8.24529  -10.1981  -7.02244
C -10.7802  7.47408  7.25858
O 7.21981  -10.5259  -7.25858
C -11.7768  7.19899  7.5456
O 6.22317  -10.801  -7.5456
C -12.7462  6.98192  7.87354
O 5.25378  -11.0181  -7.87354
C -13.6928  6.82572  8.23212
O 4.30718  -11.1743  -8.23212
C -14.6232  6.7317  8.611
O 3.37681  -11.2683  -8.611
C -15.5451  6.70032  9
O 2.45487  -11.2997  -9
C -16.4671  6.7317  9.389
O 1.53292  -11.2683  -9.389
C -17.3974  6.82572  9.76788
O 0.602552  -11.1743  -9.76788
C 17.656  6.98192  10.1265
O -0.344049  -11.0181  -10.1265
C 16.6866  7.19899  10.4544
O -1.31343  -10.801  -10.4544
C 15.6899  7.47408  10.7414
O -2.31008  -10.5259  -10.7414
C 14.6644  7.80193  10.9776
O -3.33556  -10.1981  -10.9776
C 13.6122  8.17409  11.1538
O -4.38778  -9.82591  -11.1538
C 12.5392  8.57851  11.2628
O -5.46077  -9.42149  -11.2628
C 11.4549  9  11.2997
O -6.54513  -9  -11.2997
C 10.3705  9.42149  11.2628
O -7.6295  -8.57851  -11.2628
C 9.29751  9.82591  11.1538
O -8.70249  -8.17409  -11.1538
C 8.24529  10.1981  10.9776
O -9.75471  -7.80193  -10.9776
C 7.21981  10.5259  10.7414
O -10.7802  -7.47408  -10.7414
C 6.22317  10.801  10.4544
O -11.7768  -7.19899  -10.4544
C 5.25378  11.0181  10.1265
O -12.7462  -6.98192  -10.1265
C 4.30718  11.1743  9.76788
O -13.6928  -6.82572  -9.76788
C 3.37681  11.2683  9.389
O -14.6232  -6.7317  -9.389
C 2.45487  11.2997  9
O -15.5451  -6.70032  -9
C 1.53292  11.2683  8.611
O -16.4671  -6.7317  -8.611
C 0.602552  11.1743  8.23212
O -17.3974  -6.82572  -8.23212
C -0.344049  11.0181  7.87354
O 17.656  -6.98192  -7.87354
C -1.31343  10.801  7.5456
O 16.6866  -7.19899  -7.5456
C -2.31008  10.5259  7.25858
O 15.6899  -7.47408  -7.25858
C -3.33556  10.1981  7.02244
O 14.6644  -7.80193  -7.02244
C -4.38778  9.82591  6.8462
O 13.6122  -8.17409  -6.8462
C -5.46077  9.42149  6.73722
O 12.5392  -8.57851  -6.73722
C -6.54513  9  6.70032
O 11.4549  -9  -6.70032
C -4.80246  9  6.14448
O 13.1975  -9  -6.14448
C -5.93757  8.46016  6.19174
O 12.0624  -9.53984  -6.19174
C -7.05326  7.94562  6.3309
O 10.9467  -10.0544  -6.3309
C -8.13418  7.47782  6.55458
O 9.86582  -10.5222  -6.55458
C -9.17152  7.07198  6.85202
O 8.82848  -10.928  -6.85202
C -10.1633  6.73695  7.2106
O 7.83667  -11.2631  -7.2106
C -11.1134  6.47657  7.61723
O 6.88658  -11.5234  -7.61723
C -12.0296  6.29155  8.05906
O 5.97042  -11.7085  -8.05906
C -12.9221  6.18115  8.52387
O 5.07793  -11.8189  -8.52387
C -13.8025  6.14448  9
O 4.19754  -11.8555  -9
C -14.6829  6.18115  9.47613
O 3.31715  -11.8189  -9.47613
C -15.5753  6.29155  9.94094
O 2.42465  -11.7085  -9.94094
C -16.4915  6.47657  10.3828
O 1.50849  -11.5234  -10.3828
C -17.4416  6.73695  10.7894
O 0.55841  -11.2631  -10.7894
C 17.5666  7.07198  11.148
O -0.433404  -10.928  -11.148
C 16.5293  7.47782  11.4454
O -1.47074  -10.5222  -11.4454
C 15.4483  7.94562  11.6691
O -2.55167  -10.0544  -11.6691
C 14.3326  8.46016  11.8083
O -3.66736  -9.53984  -11.8083
C 13.1975  9  11.8555
O -4.80246  -9  -11.8555
C 12.0624  9.53984  11.8083
O -5.93757  -8.46016  -11.8083
C 10.9467  10.0544  11.6691
O -7.05326  -7.94562  -11.6691
C 9.86582  10.5222  11.4454
O -8.13418  -7.47782  -11.4454
C 8.82848  10.928  11.148
O -9.17152  -7.07198  -11.148
C 7.83667  11.2631  10.7894
O -10.1633  -6.73695  -10.7894
C 6.88658  11.5234  10.3828
O -11.1134  -6.47657  -10.3828
C 5.97042  11.7085  9.94094
O -12.0296  -6.29155  -9.94094
C 5.07793  11.8189  9.47613
O -12.9221  -6.18115  -9.47613
C 4.19754  11.8555  9
O -13.8025  -6.14448  -9
C 3.31715  11.8189  8.52387
O -14.6829  -6.18115  -8.52387
C 2.42465  11.7085  8.05906
O -15.5753  -6.29155  -8.05906
C 1.50849  11.5234  7.61723
O -16.4915  -6.47657  -7.61723
C 0.55841  11.2631  7.2106
O -17.4416  -6.73695  -7.2106
C -0.433404  10.928  6.85202
O 17.5666  -7.07198  -6.85202
C -1.47074  10.5222  6.55458
O 16.5293  -7.47782  -6.55458
C -2.55167  10.0544  6.3309
O 15.4483  -7.94562  -6.3309
C -3.66736  9.53984  6.19174
O 14.3326  -8.46016  -6.19174
C -4.80246  9  6.14448
O 13.1975  -9  -6.14448
C -3.72479  9  5.40469
O 14.2752  -9  -5.40469
C -4.95363  8.28216  5.46757
O 13.0464  -9.71784  -5.46757
C -6.14578  7.60682  5.65153
O 11.8542  -10.3932  -5.65153
C -7.27452  7.0067  5.94385
O 10.7255  -10.9933  -5.94385
C -8.32766  6.50046  6.32716
O 9.67234  -11.4995  -6.32716
C -9.30616  6.09432  6.78276
O 8.69384  -11.9057  -6.78276
C -10.2198  5.78662  7.29287
O 7.78018  -12.2134  -7.29287
C -11.0831  5.57235  7.84158
O 6.91688  -12.4276  -7.84158
C -11.9125  5.44628  8.41484
O 6.08754  -12.5537  -8.41484
C -12.7248  5.40469  9
O 5.27521  -12.5953  -9
C -13.5371  5.44628  9.58516
O 4.46288  -12.5537  -9.58516
C -14.3665  5.57235  10.1584
O 3.63354  -12.4276  -10.1584
C -15.2298  5.78662  10.7071
O 2.77024  -12.2134  -10.7071
C -16.1434  6.09432  11.2172
O 1.85658  -11.9057  -11.2172
C -17.1219  6.50046  11.6728
O 0.878075  -11.4995  -11.6728
C 17.8249  7.0067  12.0562
O -0.175069  -10.9933  -12.0562
C 16.6962  7.60682  12.3485
O -1.30381  -10.3932  -12.3485
C 15.504  8.28216  12.5324
O -2.49596  -9.71784  -12.5324
C 14.2752  9  12.5953
O -3.72479  -9  -12.5953
C 13.0464  9.71784  12.5324
O -4.95363  -8.28216  -12.5324
C 11.8542  10.3932  12.3485
O -6.14578  -7.60682  -12.3485
C 10.7255  10.9933  12.0562
O -7.27452  -7.0067  -12.0562
C 9.67234  11.4995  11.6728
O -8.32766  -6.50046  -11.6728
C 8.69384  11.9057  11.2172
O -9.30616  -6.09432  -11.2172
C 7.78018  12.2134  10.7071
O -10.2198  -5.78662  -10.7071
C 6.91688  12.4276  10.1584
O -11.0831  -5.57235  -10.1584
C 6.08754  12.5537  9.58516
O -11.9125  -5.44628  -9.58516
C 5.27521  12.5953  9
O -12.7248  -5.40469  -9
C 4.46288  12.5537  8.41484
O -13.5371  -5.44628  -8.41484
C 3.63354  12.4276  7.84158
O -14.3665  -5.57235  -7.84158
C 2.77024  12.2134  7.29287
O -15.2298  -5.78662  -7.29287
C 1.85658  11.9057  6.78276
O -16.1434  -6.09432  -6.78276
C 0.878075  11.4995  6.32716
O -17.1219  -6.50046  -6.32716
C -0.175069  10.9933  5.94385
O 17.8249  -7.0067  -5.94385
C -1.30381  10.3932  5.65153
O 16.6962  -7.60682  -5.65153
C -2.49596  9.71784  5.46757
O 15.504  -8.28216  -5.46757
C -3.72479  9  5.40469
O 14.2752  -9  -5.40469
C -3.06024  9  4.57287
O 14.9398  -9  -4.57287
C -4.44364  8.03917  4.65713
O 13.5564  -9.96083  -4.65713
C -5.7547  7.15601  4.90076
O 12.2453  -10.844  -4.90076
C -6.94819  6.40135  5.28046
O 11.0518  -11.5986  -5.28046
C -8.01268  5.7927  5.76736
O 9.98732  -12.2073  -5.76736
C -8.96037  5.32476  6.33396
O 9.03963  -12.6752  -6.33396
C -9.81419  4.98266  6.95721
O 8.18581  -13.0173  -6.95721
C -10.5995  4.75076  7.61873
O 7.4005  -13.2492  -7.61873
C -11.3406  4.61671  8.30377
O 6.65935  -13.3833  -8.30377
C -12.0602  4.57287  9
O 5.93976  -13.4271  -9
C -12.7798  4.61671  9.69623
O 5.22016  -13.3833  -9.69623
C -13.521  4.75076  10.3813
O 4.47902  -13.2492  -10.3813
C -14.3063  4.98266  11.0428
O 3.6937  -13.0173  -11.0428
C -15.1601  5.32476  11.666
O 2.83988  -12.6752  -11.666
C -16.1078  5.7927  12.2326
O 1.89219  -12.2073  -12.2326
C -17.1723  6.40135  12.7195
O 0.827704  -11.5986  -12.7195
C 17.6342  7.15601  13.0992
O -0.365784  -10.844  -13.0992
C 16.3232  8.03917  13.3429
O -1.67685  -9.96083  -13.3429
C 14.9398  9  13.4271
O -3.06024  -9  -13.4271
C 13.5564  9.96083  13.3429
O -4.44364  -8.03917  -13.3429
C 12.2453  10.844  13.0992
O -5.7547  -7.15601  -13.0992
C 11.0518  11.5986  12.7195
O -6.94819  -6.40135  -12.7195
C 9.98732  12.2073  12.2326
O -8.01268  -5.7927  -12.2326
C 9.03963  12.6752  11.666
O -8.96037  -5.32476  -11.666
C 8.18581  13.0173  11.0428
O -9.81419  -4.98266  -11.0428
C 7.4005  13.2492  10.3813
O -10.5995  -4.75076  -10.3813
C 6.65935  13.3833  9.69623
O -11.3406  -4.61671  -9.69623
C 5.93976  13.4271  9
O -12.0602  -4.57287  -9
C 5.22016  13.3833  8.30377
O -12.7798  -4.61671  -8.30377
C 4.47902  13.2492  7.61873
O -13.521  -4.75076  -7.61873
C 3.6937  13.0173  6.95721
O -14.3063  -4.98266  -6.95721
C 2.83988  12.6752  6.33396
O -15.1601  -5.32476  -6.33396
C 1.89219  12.2073  5.76736
O -16.1078  -5.7927  -5.76736
C 0.827704  11.5986  5.28046
O -17.1723  -6.40135  -5.28046
C -0.365784  10.844  4.90076
O 17.6342  -7.15601  -4.90076
C -1.67685  9.96083  4.65713
O 16.3232  -8.03917  -4.65713
C -3.06024  9  4.57287
O 14.9398  -9  -4.57287
C -2.63947  9  3.69295
O 15.3605  -9  -3.69295
C -4.27502  7.69912  3.80725
O 13.725  -10.3009  -3.80725
C -5.76013  6.55325  4.13084
O 12.2399  -11.4467  -4.13084
C -7.0253  5.63672  4.61892
O 10.9747  -12.3633  -4.61892
C -8.07905  4.94631  5.22398
O 9.92095  -13.0537  -5.22398
C -8.96395  4.44557  5.90808
O 9.03605  -13.5544  -5.90808
C -9.72636  4.09548  6.64413
O 8.27364  -13.9045  -6.64413
C -10.4059  3.8655  7.41332
O 7.59408  -14.1345  -7.41332
C -11.0347  3.73516  8.2021
O 6.96528  -14.2648  -8.2021
C -11.6395  3.69295  9
O 6.36053  -14.3071  -9
C -12.2442  3.73516  9.7979
O 5.75577  -14.2648  -9.7979
C -12.873  3.8655  10.5867
O 5.12697  -14.1345  -10.5867
C -13.5526  4.09548  11.3559
O 4.44741  -13.9045  -11.3559
C -14.315  4.44557  12.0919
O 3.685  -13.5544  -12.0919
C -15.1999  4.94631  12.776
O 2.8001  -13.0537  -12.776
C -16.2536  5.63672  13.3811
O 1.74635  -12.3633  -13.3811
C -17.5188  6.55325  13.8692
O 0.48118  -11.4467  -13.8692
C 16.9961  7.69912  14.1928
O -1.00393  -10.3009  -14.1928
C 15.3605  9  14.3071
O -2.63947  -9  -14.3071
C 13.725  10.3009  14.1928