5192
ksi&psi trajectory with 10 & 10 deg step !! manualy cropped, in 10th degrees !!
U -18 -18 -10
W 18 - 18 - 10
F - 18 18 - 10
H - 18 - 18 10
B - 18 18 10
B 18 - 18 10
B 18 18 - 10
B 18 18 10
C 12.2212  0  0
O 12.2212  0  -0
C 12.2212  0  1
O -5.77884  -18  -1
C 12.2212  0  2
O -5.77884  -18  -2
C 12.2212  0  3
O -5.77884  -18  -3
C 12.2212  0  4
O -5.77884  -18  -4
C 12.2212  0  5
O -5.77884  -18  -5
C 12.2212  0  6
O -5.77884  -18  -6
C 12.2212  0  7
O -5.77884  -18  -7
C 12.2212  0  8
O -5.77884  -18  -8
C 12.2212  0  9
O -5.77884  -18  -9
C 12.2212  0  10
O -5.77884  -18  -10
C 12.2212  0  11
O -5.77884  -18  -11
C 12.2212  0  12
O -5.77884  -18  -12
C 12.2212  0  13
O -5.77884  -18  -13
C 12.2212  0  14
O -5.77884  -18  -14
C 12.2212  0  15
O -5.77884  -18  -15
C 12.2212  0  16
O -5.77884  -18  -16
C 12.2212  0  17
O -5.77884  -18  -17
C 12.2212  0  18
O 12.2212  0  -18
C -5.77884  18  17
O 12.2212  -0  -17
C -5.77884  18  16
O 12.2212  -0  -16
C -5.77884  18  15
O 12.2212  -0  -15
C -5.77884  18  14
O 12.2212  -0  -14
C -5.77884  18  13
O 12.2212  -0  -13
C -5.77884  18  12
O 12.2212  -0  -12
C -5.77884  18  11
O 12.2212  -0  -11
C -5.77884  18  10
O 12.2212  -0  -10
C -5.77884  18  9
O 12.2212  -0  -9
C -5.77884  18  8
O 12.2212  -0  -8
C -5.77884  18  7
O 12.2212  -0  -7
C -5.77884  18  6
O 12.2212  -0  -6
C -5.77884  18  5
O 12.2212  -0  -5
C -5.77884  18  4
O 12.2212  -0  -4
C -5.77884  18  3
O 12.2212  -0  -3
C -5.77884  18  2
O 12.2212  -0  -2
C -5.77884  18  1
O 12.2212  -0  -1
C 12.2212  0  0
O 12.2212  0  -0
C -14.7392  9  0.844855
O 3.26085  -9  -0.844855
C 16.2411  4.05426  1.30633
O -1.75894  -13.9457  -1.30633
C 14.4591  2.34744  2.16437
O -3.54094  -15.6526  -2.16437
C 13.6886  1.65449  3.106
O -4.31142  -16.3455  -3.106
C 13.254  1.30113  4.07354
O -4.74601  -16.6989  -4.07354
C 12.9637  1.09733  5.05198
O -5.03635  -16.9027  -5.05198
C 12.7457  0.973218  6.03583
O -5.2543  -17.0268  -6.03583
C 12.5669  0.898217  7.02261
O -5.43305  -17.1018  -7.02261
C 12.4092  0.857695  8.01096
O -5.59075  -17.1423  -8.01096
C 12.2608  0.844855  9
O -5.73915  -17.1551  -9
C 12.1124  0.857695  9.98904
O -5.88755  -17.1423  -9.98904
C 11.9548  0.898217  10.9774
O -6.04525  -17.1018  -10.9774
C 11.776  0.973218  11.9642
O -6.224  -17.0268  -11.9642
C 11.558  1.09733  12.948
O -6.44196  -16.9027  -12.948
C 11.2677  1.30113  13.9265
O -6.7323  -16.6989  -13.9265
C 10.8331  1.65449  14.894
O -7.16688  -16.3455  -14.894
C 10.0626  2.34744  15.8356
O -7.93736  -15.6526  -15.8356
C 8.28064  4.05426  16.6937
O -9.71936  -13.9457  -16.6937
C 3.26085  9  17.1551
O -14.7392  -9  -17.1551
C -1.75894  13.9457  16.6937
O 16.2411  -4.05426  -16.6937
C -3.54094  15.6526  15.8356
O 14.4591  -2.34744  -15.8356
C -4.31142  16.3455  14.894
O 13.6886  -1.65449  -14.894
C -4.74601  16.6989  13.9265
O 13.254  -1.30113  -13.9265
C -5.03635  16.9027  12.948
O 12.9637  -1.09733  -12.948
C -5.2543  17.0268  11.9642
O 12.7457  -0.973218  -11.9642
C -5.43305  17.1018  10.9774
O 12.5669  -0.898217  -10.9774
C -5.59075  17.1423  9.98904
O 12.4092  -0.857695  -9.98904
C -5.73915  17.1551  9
O 12.2608  -0.844855  -9
C -5.88755  17.1423  8.01096
O 12.1124  -0.857695  -8.01096
C -6.04525  17.1018  7.02261
O 11.9548  -0.898217  -7.02261
C -6.224  17.0268  6.03583
O 11.776  -0.973218  -6.03583
C -6.44196  16.9027  5.05197
O 11.558  -1.09733  -5.05197
C -6.7323  16.6989  4.07354
O 11.2677  -1.30113  -4.07354
C -7.16688  16.3455  3.106
O 10.8331  -1.65449  -3.106
C -7.93736  15.6526  2.16437
O 10.0626  -2.34744  -2.16437
C -9.71936  13.9457  1.30633
O 8.28064  -4.05426  -1.30633
C -14.7392  9  0.844855
O 3.26085  -9  -0.844855
C -14.616  9  1.68207
O 3.38398  -9  -1.68207
C -17.7515  6.0127  1.94947
O 0.248462  -11.9873  -1.94947
C 16.2327  4.14736  2.59092
O -1.76733  -13.8526  -2.59092
C 15.0461  3.11582  3.40067
O -2.95393  -14.8842  -3.40067
C 14.2868  2.51883  4.28388
O -3.71325  -15.4812  -4.28388
C 13.7488  2.15362  5.20273
O -4.25119  -15.8464  -5.20273
C 13.3325  1.92431  6.14055
O -4.66752  -16.0757  -6.14055
C 12.9852  1.78337  7.08898
O -5.01476  -16.2166  -7.08898
C 12.6761  1.70652  8.0432
O -5.32392  -16.2935  -8.0432
C 12.384  1.68207  9
O -5.61602  -16.3179  -9
C 12.0919  1.70652  9.9568
O -5.90811  -16.2935  -9.9568
C 11.7827  1.78337  10.911
O -6.21727  -16.2166  -10.911
C 11.4355  1.92431  11.8594
O -6.56451  -16.0757  -11.8594
C 11.0192  2.15362  12.7973
O -6.98084  -15.8464  -12.7973
C 10.4812  2.51883  13.7161
O -7.51878  -15.4812  -13.7161
C 9.7219  3.11582  14.5993
O -8.2781  -14.8842  -14.5993
C 8.5353  4.14736  15.4091
O -9.4647  -13.8526  -15.4091
C 6.51951  6.0127  16.0505
O -11.4805  -11.9873  -16.0505
C 3.38398  9  16.3179
O -14.616  -9  -16.3179
C 0.248462  11.9873  16.0505
O -17.7515  -6.0127  -16.0505
C -1.76733  13.8526  15.4091
O 16.2327  -4.14736  -15.4091
C -2.95393  14.8842  14.5993
O 15.0461  -3.11582  -14.5993
C -3.71325  15.4812  13.7161
O 14.2868  -2.51883  -13.7161
C -4.25119  15.8464  12.7973
O 13.7488  -2.15362  -12.7973
C -4.66752  16.0757  11.8594
O 13.3325  -1.92431  -11.8594
C -5.01476  16.2166  10.911
O 12.9852  -1.78337  -10.911
C -5.32392  16.2935  9.9568
O 12.6761  -1.70652  -9.9568
C -5.61602  16.3179  9
O 12.384  -1.68207  -9
C -5.90811  16.2935  8.0432
O 12.0919  -1.70652  -8.0432
C -6.21727  16.2166  7.08898
O 11.7827  -1.78337  -7.08898
C -6.56451  16.0757  6.14055
O 11.4355  -1.92431  -6.14055
C -6.98084  15.8464  5.20273
O 11.0192  -2.15362  -5.20273
C -7.51878  15.4812  4.28388
O 10.4812  -2.51883  -4.28388
C -8.2781  14.8842  3.40067
O 9.7219  -3.11582  -3.40067
C -9.4647  13.8526  2.59092
O 8.5353  -4.14736  -2.59092
C -11.4805  11.9873  1.94947
O 6.51951  -6.0127  -1.94947
C -14.616  9  1.68207
O 3.38398  -9  -1.68207
C -14.3965  9  2.50268
O 3.60351  -9  -2.50268
C -16.6592  6.95981  2.68307
O 1.34084  -11.0402  -2.68307
C 17.5328  5.37747  3.16287
O -0.467234  -12.6225  -3.16287
C 16.2267  4.3038  3.83058
O -1.77335  -13.6962  -3.83058
C 15.2791  3.59921  4.60428
O -2.72093  -14.4008  -4.60428
C 14.5579  3.13609  5.43779
O -3.44213  -14.8639  -5.43779
C 13.9761  2.83293  6.30601
O -4.02394  -15.1671  -6.30601
C 13.4789  2.64201  7.19463
O -4.52115  -15.358  -7.19463
C 13.0301  2.53647  8.09472
O -4.96988  -15.4635  -8.09472
C 12.6035  2.50268  9
O -5.39649  -15.4973  -9
C 12.1769  2.53647  9.90528
O -5.82309  -15.4635  -9.90528
C 11.7282  2.64201  10.8054
O -6.27182  -15.358  -10.8054
C 11.231  2.83293  11.694
O -6.76903  -15.1671  -11.694
C 10.6492  3.13609  12.5622
O -7.35084  -14.8639  -12.5622
C 9.92796  3.59921  13.3957
O -8.07204  -14.4008  -13.3957
C 8.98037  4.3038  14.1694
O -9.01963  -13.6962  -14.1694
C 7.67426  5.37747  14.8371
O -10.3257  -12.6225  -14.8371
C 5.86618  6.95981  15.3169
O -12.1338  -11.0402  -15.3169
C 3.60351  9  15.4973
O -14.3965  -9  -15.4973
C 1.34084  11.0402  15.3169
O -16.6592  -6.95981  -15.3169
C -0.467234  12.6225  14.8371
O 17.5328  -5.37747  -14.8371
C -1.77335  13.6962  14.1694
O 16.2267  -4.3038  -14.1694
C -2.72093  14.4008  13.3957
O 15.2791  -3.59921  -13.3957
C -3.44213  14.8639  12.5622
O 14.5579  -3.13609  -12.5622
C -4.02394  15.1671  11.694
O 13.9761  -2.83293  -11.694
C -4.52115  15.358  10.8054
O 13.4789  -2.64201  -10.8054
C -4.96988  15.4635  9.90528
O 13.0301  -2.53647  -9.90528
C -5.39649  15.4973  9
O 12.6035  -2.50268  -9
C -5.82309  15.4635  8.09472
O 12.1769  -2.53647  -8.09472
C -6.27182  15.358  7.19463
O 11.7282  -2.64201  -7.19463
C -6.76903  15.1671  6.30601
O 11.231  -2.83293  -6.30601
C -7.35084  14.8639  5.43779
O 10.6492  -3.13609  -5.43779
C -8.07204  14.4008  4.60428
O 9.92796  -3.59921  -4.60428
C -9.01963  13.6962  3.83058
O 8.98037  -4.3038  -3.83058
C -10.3257  12.6225  3.16287
O 7.67426  -5.37747  -3.16287
C -12.1338  11.0402  2.68307
O 5.86618  -6.95981  -2.68307
C -14.3965  9  2.50268
O 3.60351  -9  -2.50268
C -14.0565  9  3.29463
O 3.94348  -9  -3.29463
C -15.8529  7.50003  3.42661
O 2.14712  -10.5  -3.42661
C -17.4357  6.21773  3.79478
O 0.564267  -11.7823  -3.79478
C 17.2724  5.23493  4.33852
O -0.727643  -12.7651  -4.33852
C 16.2384  4.52348  4.99954
O -1.76163  -13.4765  -4.99954
C 15.3964  4.02314  5.73562
O -2.60357  -13.9769  -5.73562
C 14.6867  3.68088  6.51913
O -3.31332  -14.3191  -6.51913
C 14.0632  3.45928  7.33206
O -3.93684  -14.5407  -7.33206
C 13.4913  3.33479  8.16209
O -4.50875  -14.6652  -8.16209
C 12.9435  3.29463  9
O -5.05652  -14.7054  -9
C 12.3957  3.33479  9.83791
O -5.60429  -14.6652  -9.83791
C 11.8238  3.45928  10.6679
O -6.17619  -14.5407  -10.6679
C 11.2003  3.68088  11.4809
O -6.79971  -14.3191  -11.4809
C 10.4905  4.02314  12.2644
O -7.50946  -13.9769  -12.2644
C 9.6486  4.52348  13.0005
O -8.3514  -13.4765  -13.0005
C 8.61461  5.23493  13.6615
O -9.38539  -12.7651  -13.6615
C 7.3227  6.21773  14.2052
O -10.6773  -11.7823  -14.2052
C 5.73985  7.50003  14.5734
O -12.2602  -10.5  -14.5734
C 3.94348  9  14.7054
O -14.0565  -9  -14.7054
C 2.14712  10.5  14.5734
O -15.8529  -7.50003  -14.5734
C 0.564267  11.7823  14.2052
O -17.4357  -6.21773  -14.2052
C -0.727643  12.7651  13.6615
O 17.2724  -5.23493  -13.6615
C -1.76163  13.4765  13.0005
O 16.2384  -4.52348  -13.0005
C -2.60357  13.9769  12.2644
O 15.3964  -4.02314  -12.2644
C -3.31332  14.3191  11.4809
O 14.6867  -3.68088  -11.4809
C -3.93684  14.5407  10.6679
O 14.0632  -3.45928  -10.6679
C -4.50875  14.6652  9.83791
O 13.4913  -3.33479  -9.83791
C -5.05652  14.7054  9
O 12.9435  -3.29463  -9
C -5.60429  14.6652  8.16209
O 12.3957  -3.33479  -8.16209
C -6.17619  14.5407  7.33206
O 11.8238  -3.45928  -7.33206
C -6.79971  14.3191  6.51913
O 11.2003  -3.68088  -6.51913
C -7.50946  13.9769  5.73562
O 10.4905  -4.02314  -5.73562
C -8.3514  13.4765  4.99954
O 9.6486  -4.52348  -4.99954
C -9.38539  12.7651  4.33852
O 8.61461  -5.23493  -4.33852
C -10.6773  11.7823  3.79478
O 7.3227  -6.21773  -3.79478
C -12.2602  10.5  3.42661
O 5.73985  -7.50003  -3.42661
C -14.0565  9  3.29463
O 3.94348  -9  -3.29463
C -13.5575  9  4.04014
O 4.44251  -9  -4.04014
C -15.0794  7.84685  4.14137
O 2.92061  -10.1532  -4.14137
C -16.4892  6.81072  4.43079
O 1.51082  -11.1893  -4.43079
C -17.7269  5.95671  4.87384
O 0.273105  -12.0433  -4.87384
C 17.2108  5.29386  5.43128
O -0.78916  -12.7061  -5.43128
C 16.2965  4.80111  6.06925
O -1.70352  -13.1989  -6.06925
C 15.4941  4.45023  6.76192
O -2.50589  -13.5498  -6.76192
C 14.7699  4.21681  7.49029
O -3.23013  -13.7832  -7.49029
C 14.0945  4.08349  8.24011
O -3.90552  -13.9165  -8.24011
C 13.4425  4.04014  9
O -4.55749  -13.9599  -9
C 12.7905  4.08349  9.75989
O -5.20946  -13.9165  -9.75989
C 12.1152  4.21681  10.5097
O -5.88485  -13.7832  -10.5097
C 11.3909  4.45023  11.2381
O -6.60909  -13.5498  -11.2381
C 10.5885  4.80111  11.9308
O -7.41146  -13.1989  -11.9308
C 9.67418  5.29386  12.5687
O -8.32582  -12.7061  -12.5687
C 8.61192  5.95671  13.1262
O -9.38808  -12.0433  -13.1262
C 7.3742  6.81072  13.5692
O -10.6258  -11.1893  -13.5692
C 5.96442  7.84685  13.8586
O -12.0356  -10.1532  -13.8586
C 4.44251  9  13.9599
O -13.5575  -9  -13.9599
C 2.92061  10.1532  13.8586
O -15.0794  -7.84685  -13.8586
C 1.51082  11.1893  13.5692
O -16.4892  -6.81072  -13.5692
C 0.273105  12.0433  13.1262
O -17.7269  -5.95671  -13.1262
C -0.78916  12.7061  12.5687
O 17.2108  -5.29386  -12.5687
C -1.70352  13.1989  11.9308
O 16.2965  -4.80111  -11.9308
C -2.50589  13.5498  11.2381
O 15.4941  -4.45023  -11.2381
C -3.23013  13.7832  10.5097
O 14.7699  -4.21681  -10.5097
C -3.90552  13.9165  9.75989
O 14.0945  -4.08349  -9.75989
C -4.55749  13.9599  9
O 13.4425  -4.04014  -9
C -5.20946  13.9165  8.24011
O 12.7905  -4.08349  -8.24011
C -5.88485  13.7832  7.49029
O 12.1152  -4.21681  -7.49029
C -6.60909  13.5498  6.76192
O 11.3909  -4.45023  -6.76192
C -7.41146  13.1989  6.06925
O 10.5885  -4.80111  -6.06925
C -8.32582  12.7061  5.43128
O 9.67418  -5.29386  -5.43128
C -9.38808  12.0433  4.87384
O 8.61192  -5.95671  -4.87384
C -10.6258  11.1893  4.43079
O 7.3742  -6.81072  -4.43079
C -12.0356  10.1532  4.14137
O 5.96442  -7.84685  -4.14137
C -13.5575  9  4.04014
O 4.44251  -9  -4.04014
C -12.8437  9  4.71159
O 5.15634  -9  -4.71159
C -14.1967  8.08386  4.79191
O 3.80328  -9.91614  -4.79191
C -15.4852  7.23776  5.02471
O 2.51484  -10.7622  -5.02471
C -16.6673  6.50912  5.38894
O 1.33273  -11.4909  -5.38894
C -17.7308  5.91635  5.858
O 0.269203  -12.0837  -5.858
C 17.3148  5.45698  6.40601
O -0.685194  -12.543  -6.40601
C 16.4494  5.11898  7.01073
O -1.55061  -12.881  -7.01073
C 15.6496  4.88878  7.65409
O -2.35038  -13.1112  -7.65409
C 14.8925  4.7553  8.32135
O -3.10747  -13.2447  -8.32135
C 14.1563  4.71159  9
O -3.84366  -13.2884  -9
C 13.4202  4.7553  9.67865
O -4.57984  -13.2447  -9.67865
C 12.6631  4.88878  10.3459
O -5.33694  -13.1112  -10.3459
C 11.8633  5.11898  10.9893
O -6.1367  -12.881  -10.9893
C 10.9979  5.45698  11.594
O -7.00212  -12.543  -11.594
C 10.0435  5.91635  12.142
O -7.95652  -12.0837  -12.142
C 8.97995  6.50912  12.6111
O -9.02005  -11.4909  -12.6111
C 7.79784  7.23776  12.9753
O -10.2022  -10.7622  -12.9753
C 6.5094  8.08386  13.2081
O -11.4906  -9.91614  -13.2081
C 5.15634  9  13.2884
O -12.8437  -9  -13.2884
C 3.80328  9.91614  13.2081
O -14.1967  -8.08386  -13.2081
C 2.51484  10.7622  12.9753
O -15.4852  -7.23776  -12.9753
C 1.33273  11.4909  12.6111
O -16.6673  -6.50912  -12.6111
C 0.269203  12.0837  12.142
O -17.7308  -5.91635  -12.142
C -0.685194  12.543  11.594
O 17.3148  -5.45698  -11.594
C -1.55061  12.881  10.9893
O 16.4494  -5.11898  -10.9893
C -2.35038  13.1112  10.3459
O 15.6496  -4.88878  -10.3459
C -3.10747  13.2447  9.67865
O 14.8925  -4.7553  -9.67865
C -3.84366  13.2884  9
O 14.1563  -4.71159  -9
C -4.57984  13.2447  8.32135
O 13.4202  -4.7553  -8.32135
C -5.33694  13.1112  7.65409
O 12.6631  -4.88878  -7.65409
C -6.1367  12.881  7.01073
O 11.8633  -5.11898  -7.01073
C -7.00212  12.543  6.40601
O 10.9979  -5.45698  -6.40601
C -7.95652  12.0837  5.858
O 10.0435  -5.91635  -5.858
C -9.02005  11.4909  5.38894
O 8.97995  -6.50912  -5.38894
C -10.2022  10.7622  5.02471
O 7.79784  -7.23776  -5.02471
C -11.4906  9.91614  4.79191
O 6.5094  -8.08386  -4.79191
C -12.8437  9  4.71159
O 5.15634  -9  -4.71159
C -11.8496  9  5.26609
O 6.15036  -9  -5.26609
C -13.1001  8.24539  5.33221
O 4.8999  -9.75461  -5.33221
C -14.3094  7.53765  5.52531
O 3.69058  -10.4623  -5.52531
C -15.4483  6.91213  5.83135
O 2.55175  -11.0879  -5.83135
C -16.504  6.38782  6.23138
O 1.49599  -11.6122  -6.23138
C -17.4788  5.96982  6.70536
O 0.521219  -12.0302  -6.70536
C 17.616  5.65485  7.23462
O -0.383998  -12.3451  -7.23462
C 16.7643  5.43645  7.80273
O -1.23571  -12.5635  -7.80273
C 15.9484  5.3083  8.39542
O -2.05161  -12.6917  -8.39542
C 15.1504  5.26609  9
O -2.84964  -12.7339  -9
C 14.3523  5.3083  9.60458
O -3.64768  -12.6917  -9.60458
C 13.5364  5.43645  10.1973
O -4.46357  -12.5635  -10.1973
C 12.6847  5.65485  10.7654
O -5.31529  -12.3451  -10.7654
C 11.7795  5.96982  11.2946
O -6.22051  -12.0302  -11.2946
C 10.8047  6.38782  11.7686
O -7.19527  -11.6122  -11.7686
C 9.74897  6.91213  12.1686
O -8.25103  -11.0879  -12.1686
C 8.61014  7.53765  12.4747
O -9.38986  -10.4623  -12.4747
C 7.40081  8.24539  12.6678
O -10.5992  -9.75461  -12.6678
C 6.15036  9  12.7339
O -11.8496  -9  -12.7339
C 4.8999  9.75461  12.6678
O -13.1001  -8.24539  -12.6678
C 3.69058  10.4623  12.4747
O -14.3094  -7.53765  -12.4747
C 2.55175  11.0879  12.1686
O -15.4483  -6.91213  -12.1686
C 1.49599  11.6122  11.7686
O -16.504  -6.38782  -11.7686
C 0.521219  12.0302  11.2946
O -17.4788  -5.96982  -11.2946
C -0.383998  12.3451  10.7654
O 17.616  -5.65485  -10.7654
C -1.23571  12.5635  10.1973
O 16.7643  -5.43645  -10.1973
C -2.05161  12.6917  9.60458
O 15.9484  -5.3083  -9.60458
C -2.84964  12.7339  9
O 15.1504  -5.26609  -9
C -3.64768  12.6917  8.39542
O 14.3523  -5.3083  -8.39542
C -4.46357  12.5635  7.80273
O 13.5364  -5.43645  -7.80273
C -5.31529  12.3451  7.23462
O 12.6847  -5.65485  -7.23462
C -6.22051  12.0302  6.70536
O 11.7795  -5.96982  -6.70536
C -7.19527  11.6122  6.23138
O 10.8047  -6.38782  -6.23138
C -8.25103  11.0879  5.83135
O 9.74897  -6.91213  -5.83135
C -9.38986  10.4623  5.52531
O 8.61014  -7.53765  -5.52531
C -10.5992  9.75461  5.33221
O 7.40081  -8.24539  -5.33221
C -11.8496  9  5.26609
O 6.15036  -9  -5.26609
C -10.541  9  5.64321
O 7.45905  -9  -5.64321
C -11.7358  8.34267  5.70078
O 6.26419  -9.65733  -5.70078
C -12.9006  7.72127  5.8696
O 5.09939  -10.2787  -5.8696
C -14.0128  7.16444  6.13899
O 3.98722  -10.8356  -6.13899
C -15.0611  6.68994  6.49402
O 2.93894  -11.3101  -6.49402
C -16.045  6.3054  6.91812
O 1.95503  -11.6946  -6.91812
C -16.9719  6.01146  7.39508
O 1.02811  -11.9885  -7.39508
C -17.8538  5.80535  7.90991
O 0.146152  -12.1946  -7.90991
C 17.2949  5.6835  8.44903
O -0.705137  -12.3165  -8.44903
C 16.459  5.64321  9
O -1.54095  -12.3568  -9
C 15.6232  5.6835  9.55097
O -2.37677  -12.3165  -9.55097
C 14.7719  5.80535  10.0901
O -3.22806  -12.1946  -10.0901
C 13.89  6.01146  10.6049
O -4.11002  -11.9885  -10.6049
C 12.9631  6.3054  11.0819
O -5.03694  -11.6946  -11.0819
C 11.9792  6.68994  11.506
O -6.02085  -11.3101  -11.506
C 10.9309  7.16444  11.861
O -7.06912  -10.8356  -11.861
C 9.8187  7.72127  12.1304
O -8.1813  -10.2787  -12.1304
C 8.6539  8.34267  12.2992
O -9.3461  -9.65733  -12.2992
C 7.45905  9  12.3568
O -10.541  -9  -12.3568
C 6.26419  9.65733  12.2992
O -11.7358  -8.34267  -12.2992
C 5.09939  10.2787  12.1304
O -12.9006  -7.72127  -12.1304
C 3.98722  10.8356  11.861
O -14.0128  -7.16444  -11.861
C 2.93894  11.3101  11.506
O -15.0611  -6.68994  -11.506
C 1.95503  11.6946  11.0819
O -16.045  -6.3054  -11.0819
C 1.02811  11.9885  10.6049
O -16.9719  -6.01146  -10.6049
C 0.146152  12.1946  10.0901
O -17.8538  -5.80535  -10.0901
C -0.705137  12.3165  9.55097
O 17.2949  -5.6835  -9.55097
C -1.54095  12.3568  9
O 16.459  -5.64321  -9
C -2.37677  12.3165  8.44903
O 15.6232  -5.6835  -8.44903
C -3.22806  12.1946  7.90991
O 14.7719  -5.80535  -7.90991
C -4.11002  11.9885  7.39508
O 13.89  -6.01146  -7.39508
C -5.03694  11.6946  6.91812
O 12.9631  -6.3054  -6.91812
C -6.02085  11.3101  6.49402
O 11.9792  -6.68994  -6.49402
C -7.06912  10.8356  6.13899
O 10.9309  -7.16444  -6.13899
C -8.1813  10.2787  5.8696
O 9.8187  -7.72127  -5.8696
C -9.3461  9.65733  5.70078
O 8.6539  -8.34267  -5.70078
C -10.541  9  5.64321
O 7.45905  -9  -5.64321
C -9  9  5.77884
O 9  -9  -5.77884
C -10.1772  8.37566  5.83352
O 7.82279  -9.62434  -5.83352
C -11.3276  7.78399  5.99404
O 6.67235  -10.216  -5.99404
C -12.4309  7.25151  6.25075
O 5.56912  -10.7485  -6.25075
C -13.4762  6.79537  6.58995
O 4.52375  -11.2046  -6.58995
C -14.4627  6.42371  6.99624
O 3.53728  -11.5763  -6.99624
C -15.3965  6.13827  7.45425
O 2.60349  -11.8617  -7.45425
C -16.2884  5.93735  7.94955
O 1.71162  -12.0626  -7.94955
C -17.1515  5.81827  8.46889
O 0.848524  -12.1817  -8.46889
C 18  5.77884  9
O -1.70755e-07  -12.2212  -9
C 17.1515  5.81827  9.53111
O -0.848524  -12.1817  -9.53111
C 16.2884  5.93735  10.0505
O -1.71162  -12.0626  -10.0505
C 15.3965  6.13827  10.5458
O -2.60349  -11.8617  -10.5458
C 14.4627  6.42371  11.0038
O -3.53728  -11.5763  -11.0038
C 13.4762  6.79537  11.41
O -4.52375  -11.2046  -11.41
C 12.4309  7.25151  11.7493
O -5.56912  -10.7485  -11.7493
C 11.3276  7.78399  12.006
O -6.67235  -10.216  -12.006
C 10.1772  8.37566  12.1665
O -7.82279  -9.62434  -12.1665
C 9  9  12.2212
O -9  -9  -12.2212
C 7.82279  9.62434  12.1665
O -10.1772  -8.37566  -12.1665
C 6.67235  10.216  12.006
O -11.3276  -7.78399  -12.006
C 5.56912  10.7485  11.7493
O -12.4309  -7.25151  -11.7493
C 4.52375  11.2046  11.41
O -13.4762  -6.79537  -11.41
C 3.53728  11.5763  11.0038
O -14.4627  -6.42371  -11.0038
C 2.60349  11.8617  10.5458
O -15.3965  -6.13827  -10.5458
C 1.71162  12.0626  10.0505
O -16.2884  -5.93735  -10.0505
C 0.848524  12.1817  9.53111
O -17.1515  -5.81827  -9.53111
C -1.70755e-07  12.2212  9
O 18  -5.77884  -9
C -0.848524  12.1817  8.46889
O 17.1515  -5.81827  -8.46889
C -1.71162  12.0626  7.94955
O 16.2884  -5.93735  -7.94955
C -2.60349  11.8617  7.45425
O 15.3965  -6.13827  -7.45425
C -3.53728  11.5763  6.99624
O 14.4627  -6.42371  -6.99624
C -4.52375  11.2046  6.58995
O 13.4762  -6.79537  -6.58995
C -5.56912  10.7485  6.25075
O 12.4309  -7.25151  -6.25075
C -6.67235  10.216  5.99404
O 11.3276  -7.78399  -5.99404
C -7.82279  9.62434  5.83352
O 10.1772  -8.37566  -5.83352
C -9  9  5.77884
O 9  -9  -5.77884
C -7.45905  9  5.64321
O 10.541  -9  -5.64321
C -8.6539  8.34267  5.70078
O 9.3461  -9.65733  -5.70078
C -9.8187  7.72127  5.8696
O 8.1813  -10.2787  -5.8696
C -10.9309  7.16444  6.13899
O 7.06912  -10.8356  -6.13899
C -11.9792  6.68994  6.49402
O 6.02085  -11.3101  -6.49402
C -12.9631  6.3054  6.91812
O 5.03694  -11.6946  -6.91812
C -13.89  6.01146  7.39508
O 4.11002  -11.9885  -7.39508
C -14.7719  5.80535  7.90991
O 3.22806  -12.1946  -7.90991
C -15.6232  5.6835  8.44903
O 2.37677  -12.3165  -8.44903
C -16.459  5.64321  9
O 1.54095  -12.3568  -9
C -17.2949  5.6835  9.55097
O 0.705137  -12.3165  -9.55097
C 17.8538  5.80535  10.0901
O -0.146152  -12.1946  -10.0901
C 16.9719  6.01146  10.6049
O -1.02811  -11.9885  -10.6049
C 16.045  6.3054  11.0819
O -1.95503  -11.6946  -11.0819
C 15.0611  6.68994  11.506
O -2.93894  -11.3101  -11.506
C 14.0128  7.16444  11.861
O -3.98722  -10.8356  -11.861
C 12.9006  7.72127  12.1304
O -5.09939  -10.2787  -12.1304
C 11.7358  8.34267  12.2992
O -6.26419  -9.65733  -12.2992
C 10.541  9  12.3568
O -7.45905  -9  -12.3568
C 9.3461  9.65733  12.2992
O -8.6539  -8.34267  -12.2992
C 8.1813  10.2787  12.1304
O -9.8187  -7.72127  -12.1304
C 7.06912  10.8356  11.861
O -10.9309  -7.16444  -11.861
C 6.02085  11.3101  11.506
O -11.9792  -6.68994  -11.506
C 5.03694  11.6946  11.0819
O -12.9631  -6.3054  -11.0819
C 4.11002  11.9885  10.6049
O -13.89  -6.01146  -10.6049
C 3.22806  12.1946  10.0901
O -14.7719  -5.80535  -10.0901
C 2.37677  12.3165  9.55097
O -15.6232  -5.6835  -9.55097
C 1.54095  12.3568  9
O -16.459  -5.64321  -9
C 0.705137  12.3165  8.44903
O -17.2949  -5.6835  -8.44903
C -0.146152  12.1946  7.90991
O 17.8538  -5.80535  -7.90991
C -1.02811  11.9885  7.39508
O 16.9719  -6.01146  -7.39508
C -1.95503  11.6946  6.91812
O 16.045  -6.3054  -6.91812
C -2.93894  11.3101  6.49402
O 15.0611  -6.68994  -6.49402
C -3.98722  10.8356  6.13899
O 14.0128  -7.16444  -6.13899
C -5.09939  10.2787  5.8696
O 12.9006  -7.72127  -5.8696
C -6.26419  9.65733  5.70078
O 11.7358  -8.34267  -5.70078
C -7.45905  9  5.64321
O 10.541  -9  -5.64321
C -6.15036  9  5.26609
O 11.8496  -9  -5.26609
C -7.40081  8.24539  5.33221
O 10.5992  -9.75461  -5.33221
C -8.61014  7.53765  5.52531
O 9.38986  -10.4623  -5.52531
C -9.74897  6.91213  5.83135
O 8.25103  -11.0879  -5.83135
C -10.8047  6.38782  6.23138
O 7.19527  -11.6122  -6.23138
C -11.7795  5.96982  6.70536
O 6.22051  -12.0302  -6.70536
C -12.6847  5.65485  7.23462
O 5.31529  -12.3451  -7.23462
C -13.5364  5.43645  7.80273
O 4.46357  -12.5635  -7.80273
C -14.3523  5.3083  8.39542
O 3.64768  -12.6917  -8.39542
C -15.1504  5.26609  9
O 2.84964  -12.7339  -9
C -15.9484  5.3083  9.60458
O 2.05161  -12.6917  -9.60458
C -16.7643  5.43645  10.1973
O 1.23571  -12.5635  -10.1973
C -17.616  5.65485  10.7654
O 0.383998  -12.3451  -10.7654
C 17.4788  5.96982  11.2946
O -0.521219  -12.0302  -11.2946
C 16.504  6.38782  11.7686
O -1.49599  -11.6122  -11.7686
C 15.4483  6.91213  12.1686
O -2.55175  -11.0879  -12.1686
C 14.3094  7.53765  12.4747
O -3.69058  -10.4623  -12.4747
C 13.1001  8.24539  12.6678
O -4.8999  -9.75461  -12.6678
C 11.8496  9  12.7339
O -6.15036  -9  -12.7339
C 10.5992  9.75461  12.6678
O -7.40081  -8.24539  -12.6678
C 9.38986  10.4623  12.4747
O -8.61014  -7.53765  -12.4747
C 8.25103  11.0879  12.1686
O -9.74897  -6.91213  -12.1686
C 7.19527  11.6122  11.7686
O -10.8047  -6.38782  -11.7686
C 6.22051  12.0302  11.2946
O -11.7795  -5.96982  -11.2946
C 5.31529  12.3451  10.7654
O -12.6847  -5.65485  -10.7654
C 4.46357  12.5635  10.1973
O -13.5364  -5.43645  -10.1973
C 3.64768  12.6917  9.60458
O -14.3523  -5.3083  -9.60458
C 2.84964  12.7339  9
O -15.1504  -5.26609  -9
C 2.05161  12.6917  8.39542
O -15.9484  -5.3083  -8.39542
C 1.23571  12.5635  7.80273
O -16.7643  -5.43645  -7.80273
C 0.383998  12.3451  7.23462
O -17.616  -5.65485  -7.23462
C -0.521219  12.0302  6.70536
O 17.4788  -5.96982  -6.70536
C -1.49599  11.6122  6.23138
O 16.504  -6.38782  -6.23138
C -2.55175  11.0879  5.83135
O 15.4483  -6.91213  -5.83135
C -3.69058  10.4623  5.52531
O 14.3094  -7.53765  -5.52531
C -4.8999  9.75461  5.33221
O 13.1001  -8.24539  -5.33221
C -6.15036  9  5.26609
O 11.8496  -9  -5.26609
C -5.15634  9  4.71159
O 12.8437  -9  -4.71159
C -6.5094  8.08386  4.79191
O 11.4906  -9.91614  -4.79191
C -7.79784  7.23776  5.02471
O 10.2022  -10.7622  -5.02471
C -8.97995  6.50912  5.38894
O 9.02005  -11.4909  -5.38894
C -10.0435  5.91635  5.858
O 7.95652  -12.0837  -5.858
C -10.9979  5.45698  6.40601
O 7.00212  -12.543  -6.40601
C -11.8633  5.11898  7.01073
O 6.1367  -12.881  -7.01073
C -12.6631  4.88878  7.65409
O 5.33694  -13.1112  -7.65409
C -13.4202  4.7553  8.32135
O 4.57984  -13.2447  -8.32135
C -14.1563  4.71159  9
O 3.84366  -13.2884  -9
C -14.8925  4.7553  9.67865
O 3.10747  -13.2447  -9.67865
C -15.6496  4.88878  10.3459
O 2.35038  -13.1112  -10.3459
C -16.4494  5.11898  10.9893
O 1.55061  -12.881  -10.9893
C -17.3148  5.45698  11.594
O 0.685194  -12.543  -11.594
C 17.7308  5.91635  12.142
O -0.269203  -12.0837  -12.142
C 16.6673  6.50912  12.6111
O -1.33273  -11.4909  -12.6111
C 15.4852  7.23776  12.9753
O -2.51484  -10.7622  -12.9753
C 14.1967  8.08386  13.2081
O -3.80328  -9.91614  -13.2081
C 12.8437  9  13.2884
O -5.15634  -9  -13.2884
C 11.4906  9.91614  13.2081
O -6.5094  -8.08386  -13.2081
C 10.2022  10.7622  12.9753
O -7.79784  -7.23776  -12.9753
C 9.02005  11.4909  12.6111
O -8.97995  -6.50912  -12.6111
C 7.95652  12.0837  12.142
O -10.0435  -5.91635  -12.142
C 7.00212  12.543  11.594
O -10.9979  -5.45698  -11.594
C 6.1367  12.881  10.9893
O -11.8633  -5.11898  -10.9893
C 5.33694  13.1112  10.3459
O -12.6631  -4.88878  -10.3459
C 4.57984  13.2447  9.67865
O -13.4202  -4.7553  -9.67865
C 3.84366  13.2884  9
O -14.1563  -4.71159  -9
C 3.10747  13.2447  8.32135
O -14.8925  -4.7553  -8.32135
C 2.35038  13.1112  7.65409
O -15.6496  -4.88878  -7.65409
C 1.55061  12.881  7.01073
O -16.4494  -5.11898  -7.01073
C 0.685194  12.543  6.40601
O -17.3148  -5.45698  -6.40601
C -0.269203  12.0837  5.858
O 17.7308  -5.91635  -5.858
C -1.33273  11.4909  5.38894
O 16.6673  -6.50912  -5.38894
C -2.51484  10.7622  5.02471
O 15.4852  -7.23776  -5.02471
C -3.80328  9.91614  4.79191
O 14.1967  -8.08386  -4.79191
C -5.15634  9  4.71159
O 12.8437  -9  -4.71159
C -4.44251  9  4.04014
O 13.5575  -9  -4.04014
C -5.96442  7.84685  4.14137
O 12.0356  -10.1532  -4.14137
C -7.3742  6.81072  4.43079
O 10.6258  -11.1893  -4.43079
C -8.61192  5.95671  4.87384
O 9.38808  -12.0433  -4.87384
C -9.67418  5.29386  5.43128
O 8.32582  -12.7061  -5.43128
C -10.5885  4.80111  6.06925
O 7.41146  -13.1989  -6.06925
C -11.3909  4.45023  6.76192
O 6.60909  -13.5498  -6.76192
C -12.1152  4.21681  7.49029
O 5.88485  -13.7832  -7.49029
C -12.7905  4.08349  8.24011
O 5.20946  -13.9165  -8.24011
C -13.4425  4.04014  9
O 4.55749  -13.9599  -9
C -14.0945  4.08349  9.75989
O 3.90552  -13.9165  -9.75989
C -14.7699  4.21681  10.5097
O 3.23013  -13.7832  -10.5097
C -15.4941  4.45023  11.2381
O 2.50589  -13.5498  -11.2381
C -16.2965  4.80111  11.9308
O 1.70352  -13.1989  -11.9308
C -17.2108  5.29386  12.5687
O 0.78916  -12.7061  -12.5687
C 17.7269  5.95671  13.1262
O -0.273105  -12.0433  -13.1262
C 16.4892  6.81072  13.5692
O -1.51082  -11.1893  -13.5692
C 15.0794  7.84685  13.8586
O -2.92061  -10.1532  -13.8586
C 13.5575  9  13.9599
O -4.44251  -9  -13.9599
C 12.0356  10.1532  13.8586
O -5.96442  -7.84685  -13.8586
C 10.6258  11.1893  13.5692
O -7.3742  -6.81072  -13.5692
C 9.38808  12.0433  13.1262
O -8.61192  -5.95671  -13.1262
C 8.32582  12.7061  12.5687
O -9.67418  -5.29386  -12.5687
C 7.41146  13.1989  11.9308
O -10.5885  -4.80111  -11.9308
C 6.60909  13.5498  11.2381
O -11.3909  -4.45023  -11.2381
C 5.88485  13.7832  10.5097
O -12.1152  -4.21681  -10.5097
C 5.20946  13.9165  9.75989
O -12.7905  -4.08349  -9.75989
C 4.55749  13.9599  9
O -13.4425  -4.04014  -9
C 3.90552  13.9165  8.24011
O -14.0945  -4.08349  -8.24011
C 3.23013  13.7832  7.49029
O -14.7699  -4.21681  -7.49029
C 2.50589  13.5498  6.76192
O -15.4941  -4.45023  -6.76192
C 1.70352  13.1989  6.06925
O -16.2965  -4.80111  -6.06925
C 0.78916  12.7061  5.43128
O -17.2108  -5.29386  -5.43128
C -0.273105  12.0433  4.87384
O 17.7269  -5.95671  -4.87384
C -1.51082  11.1893  4.43079
O 16.4892  -6.81072  -4.43079
C -2.92061  10.1532  4.14137
O 15.0794  -7.84685  -4.14137
C -4.44251  9  4.04014
O 13.5575  -9  -4.04014
C -3.94348  9  3.29463
O 14.0565  -9  -3.29463
C -5.73985  7.50003  3.42661
O 12.2602  -10.5  -3.42661
C -7.3227  6.21773  3.79478
O 10.6773  -11.7823  -3.79478
C -8.61461  5.23493  4.33852
O 9.38539  -12.7651  -4.33852
C -9.6486  4.52348  4.99954
O 8.3514  -13.4765  -4.99954
C -10.4905  4.02314  5.73562
O 7.50946  -13.9769  -5.73562
C -11.2003  3.68088  6.51913
O 6.79971  -14.3191  -6.51913
C -11.8238  3.45928  7.33206
O 6.17619  -14.5407  -7.33206
C -12.3957  3.33479  8.16209
O 5.60429  -14.6652  -8.16209
C -12.9435  3.29463  9
O 5.05652  -14.7054  -9
C -13.4913  3.33479  9.83791
O 4.50875  -14.6652  -9.83791
C -14.0632  3.45928  10.6679
O 3.93684  -14.5407  -10.6679
C -14.6867  3.68088  11.4809
O 3.31332  -14.3191  -11.4809
C -15.3964  4.02314  12.2644
O 2.60357  -13.9769  -12.2644
C -16.2384  4.52348  13.0005
O 1.76163  -13.4765  -13.0005
C -17.2724  5.23493  13.6615
O 0.727643  -12.7651  -13.6615
C 17.4357  6.21773  14.2052
O -0.564267  -11.7823  -14.2052
C 15.8529  7.50003  14.5734
O -2.14712  -10.5  -14.5734
C 14.0565  9  14.7054
O -3.94348  -9  -14.7054
C 12.2602  10.5  14.5734