5192
ksi&psi trajectory with 10 & 10 deg step !! manualy cropped, in 10th degrees !!
U -18 -18 -10
W 18 - 18 - 10
F - 18 18 - 10
H - 18 - 18 10
B - 18 18 10
B 18 - 18 10
B 18 18 - 10
B 18 18 10
C 2.34101  0  6.34349
O -15.659  18  -6.34349
C 2.83723  1.11523  6.38694
O -15.1628  -16.8848  -6.38694
C 3.31144  2.21429  6.51501
O -14.6886  -15.7857  -6.51501
C 3.74464  3.28421  6.72135
O -14.2554  -14.7158  -6.72135
C 4.12272  4.3172  6.99655
O -13.8773  -13.6828  -6.99655
C 4.43681  5.31113  7.32938
O -13.5632  -12.6889  -7.32938
C 4.68234  6.26883  7.7079
O -13.3177  -11.7312  -7.7079
C 4.85764  7.19676  8.12017
O -13.1424  -10.8032  -8.12017
C 4.96259  8.10376  8.5546
O -13.0374  -9.89624  -8.5546
C 4.99752  9  9
O -13.0025  -9  -9
C 4.96259  9.89624  9.4454
O -13.0374  -8.10376  -9.4454
C 4.85764  10.8032  9.87983
O -13.1424  -7.19676  -9.87983
C 4.68234  11.7312  10.2921
O -13.3177  -6.26883  -10.2921
C 4.43681  12.6889  10.6706
O -13.5632  -5.31113  -10.6706
C 4.12272  13.6828  11.0034
O -13.8773  -4.3172  -11.0034
C 3.74464  14.7158  11.2786
O -14.2554  -3.28421  -11.2786
C 3.31144  15.7857  11.485
O -14.6886  -2.21429  -11.485
C 2.83723  16.8848  11.6131
O -15.1628  -1.11523  -11.6131
C 2.34101  18  11.6565
O -15.659  -0  -11.6565
C 1.84479  -16.8848  11.6131
O -16.1552  1.11523  -11.6131
C 1.37058  -15.7857  11.485
O -16.6294  2.21429  -11.485
C 0.937389  -14.7158  11.2786
O -17.0626  3.28421  -11.2786
C 0.559305  -13.6828  11.0034
O -17.4407  4.3172  -11.0034
C 0.245218  -12.6889  10.6706
O -17.7548  5.31113  -10.6706
C -0.000309424  -11.7312  10.2921
O 17.9997  6.26883  -10.2921
C -0.175618  -10.8032  9.87983
O 17.8244  7.19676  -9.87983
C -0.280568  -9.89624  9.4454
O 17.7194  8.10376  -9.4454
C -0.315492  -9  9
O 17.6845  9  -9
C -0.280568  -8.10376  8.5546
O 17.7194  9.89624  -8.5546
C -0.175618  -7.19676  8.12017
O 17.8244  10.8032  -8.12017
C -0.000309424  -6.26883  7.7079
O 17.9997  11.7312  -7.7079
C 0.245218  -5.31113  7.32938
O -17.7548  12.6889  -7.32938
C 0.559305  -4.3172  6.99655
O -17.4407  13.6828  -6.99655
C 0.937389  -3.28421  6.72135
O -17.0626  14.7158  -6.72135
C 1.37058  -2.21429  6.51501
O -16.6294  15.7857  -6.51501
C 1.84479  -1.11523  6.38694
O -16.1552  16.8848  -6.38694
C 2.34101  -0  6.34349
O -15.659  18  -6.34349
C 2.37316  0  5.42655
O -15.6268  18  -5.42655
C 2.91892  1.21195  5.47376
O -15.0811  -16.788  -5.47376
C 3.43479  2.3997  5.61235
O -14.5652  -15.6003  -5.61235
C 3.89621  3.54446  5.83398
O -14.1038  -14.4555  -5.83398
C 4.28688  4.63596  6.12664
O -13.7131  -13.364  -6.12664
C 4.59864  5.6724  6.47657
O -13.4014  -12.3276  -6.47657
C 4.82949  6.65853  6.86982
O -13.1705  -11.3415  -6.86982
C 4.98105  7.60326  7.29305
O -13.0189  -10.3967  -7.29305
C 5.0565  8.51751  7.73382
O -12.9435  -9.48249  -7.73382
C 5.05925  9.41289  8.18057
O -12.9407  -8.58711  -8.18057
C 4.99234  10.3008  8.62235
O -13.0077  -7.69921  -8.62235
C 4.85825  11.1918  9.04853
O -13.1417  -6.80818  -9.04853
C 4.65921  12.0953  9.44862
O -13.3408  -5.90466  -9.44862
C 4.39779  13.0189  9.81207
O -13.6022  -4.98106  -9.81207
C 4.07771  13.9678  10.1284
O -13.9223  -4.0322  -10.1284
C 3.7048  14.9439  10.3876
O -14.2952  -3.05605  -10.3876
C 3.28784  15.9457  10.5804
O -14.7122  -2.05432  -10.5804
C 2.83893  16.9674  10.6993
O -15.1611  -1.03264  -10.6993
C 2.37316  18  10.7396
O -15.6268  -0  -10.7396
C 1.90739  -16.9674  10.6993
O -16.0926  1.03264  -10.6993
C 1.45848  -15.9457  10.5804
O -16.5415  2.05432  -10.5804
C 1.04152  -14.9439  10.3876
O -16.9585  3.05605  -10.3876
C 0.668617  -13.9678  10.1284
O -17.3314  4.0322  -10.1284
C 0.348537  -13.0189  9.81207
O -17.6515  4.98106  -9.81207
C 0.0871124  -12.0953  9.44862
O -17.9129  5.90466  -9.44862
C -0.111929  -11.1918  9.04853
O 17.8881  6.80818  -9.04853
C -0.246022  -10.3008  8.62235
O 17.754  7.69921  -8.62235
C -0.312932  -9.41289  8.18057
O 17.6871  8.58711  -8.18057
C -0.310174  -8.51751  7.73382
O 17.6898  9.48249  -7.73382
C -0.234729  -7.60326  7.29305
O 17.7653  10.3967  -7.29305
C -0.0831727  -6.65853  6.86982
O 17.9168  11.3415  -6.86982
C 0.147678  -5.6724  6.47657
O -17.8523  12.3276  -6.47657
C 0.459442  -4.63596  6.12664
O -17.5406  13.364  -6.12664
C 0.850108  -3.54446  5.83398
O -17.1499  14.4555  -5.83398
C 1.31153  -2.3997  5.61235
O -16.6885  15.6003  -5.61235
C 1.8274  -1.21195  5.47376
O -16.1726  16.788  -5.47376
C 2.37316  -0  5.42655
O -15.6268  18  -5.42655
C 2.47371  0  4.51425
O -15.5263  18  -4.51425
C 3.09705  1.33277  4.56616
O -14.9029  -16.6672  -4.56616
C 3.67741  2.62794  4.71768
O -14.3226  -15.3721  -4.71768
C 4.18189  3.85812  4.95746
O -13.8181  -14.1419  -4.95746
C 4.59221  5.01062  5.26988
O -13.4078  -12.9894  -5.26988
C 4.90297  6.08591  5.6381
O -13.097  -11.9141  -5.6381
C 5.11711  7.09302  6.04595
O -12.8829  -10.907  -6.04595
C 5.24143  8.0451  6.47887
O -12.7586  -9.9549  -6.47887
C 5.28365  8.95648  6.92394
O -12.7164  -9.04352  -6.92394
C 5.25089  9.84095  7.36962
O -12.7491  -8.15905  -7.36962
C 5.14917  10.711  7.80536
O -12.8508  -7.28902  -7.80536
C 4.98344  11.5774  8.22122
O -13.0166  -6.42256  -8.22122
C 4.75802  12.4493  8.60766
O -13.242  -5.55069  -8.60766
C 4.47723  13.3335  8.95534
O -13.5228  -4.66652  -8.95534
C 4.14604  14.2345  9.2553
O -13.854  -3.76555  -9.2553
C 3.77081  15.154  9.49908
O -14.2292  -2.84597  -9.49908
C 3.35981  16.0911  9.67926
O -14.6402  -1.90888  -9.67926
C 2.92338  17.0418  9.78993
O -15.0766  -0.958163  -9.78993
C 2.47371  18  9.82726
O -15.5263  -0  -9.82726
C 2.02404  -17.0418  9.78993
O -15.976  0.958163  -9.78993
C 1.58762  -16.0911  9.67926
O -16.4124  1.90888  -9.67926
C 1.17661  -15.154  9.49908
O -16.8234  2.84597  -9.49908
C 0.801391  -14.2345  9.2553
O -17.1986  3.76555  -9.2553
C 0.470203  -13.3335  8.95534
O -17.5298  4.66652  -8.95534
C 0.189409  -12.4493  8.60766
O -17.8106  5.55069  -8.60766
C -0.0360071  -11.5774  8.22122
O 17.964  6.42256  -8.22122
C -0.201741  -10.711  7.80536
O 17.7983  7.28902  -7.80536
C -0.303465  -9.84095  7.36962
O 17.6965  8.15905  -7.36962
C -0.33622  -8.95648  6.92394
O 17.6638  9.04352  -6.92394
C -0.294002  -8.0451  6.47887
O 17.706  9.9549  -6.47887
C -0.169685  -7.09302  6.04595
O 17.8303  10.907  -6.04595
C 0.0444541  -6.08591  5.6381
O -17.9555  11.9141  -5.6381
C 0.355221  -5.01062  5.26988
O -17.6448  12.9894  -5.26988
C 0.765538  -3.85812  4.95746
O -17.2345  14.1419  -4.95746
C 1.27002  -2.62794  4.71768
O -16.73  15.3721  -4.71768
C 1.85038  -1.33277  4.56616
O -16.1496  16.6672  -4.56616
C 2.47371  -0  4.51425
O -15.5263  18  -4.51425
C 2.65617  1.47878e-07  3.61225
O -15.3438  -18  -3.61225
C 3.40271  1.49597  3.67052
O -14.5973  -16.504  -3.67052
C 4.08202  2.92973  3.83907
O -13.918  -15.0703  -3.83907
C 4.64825  4.26051  4.10163
O -13.3518  -13.7395  -4.10163
C 5.08326  5.47532  4.43737
O -12.9167  -12.5247  -4.43737
C 5.38945  6.58183  4.82549
O -12.6105  -11.4182  -4.82549
C 5.57925  7.59787  5.2477
O -12.4208  -10.4021  -5.2477
C 5.66763  8.54388  5.68861
O -12.3324  -9.45612  -5.68861
C 5.6684  9.43916  6.13537
O -12.3316  -8.56084  -6.13537
C 5.59296  10.3004  6.577
O -12.407  -7.69957  -6.577
C 5.45033  11.1416  7.00378
O -12.5497  -6.85838  -7.00378
C 5.24762  11.974  7.4068
O -12.7524  -6.02601  -7.4068
C 4.99076  12.8064  7.77767
O -13.0092  -5.19365  -7.77767
C 4.68519  13.6451  8.10841
O -13.3148  -4.35486  -8.10841
C 4.33653  14.4945  8.39148
O -13.6635  -3.50551  -8.39148
C 3.95116  15.3561  8.61997
O -14.0488  -2.64386  -8.61997
C 3.5366  16.2296  8.78792
O -14.4634  -1.7704  -8.78792
C 3.10164  17.1123  8.89067
O -14.8984  -0.887722  -8.89067
C 2.65617  -18  8.92526
O -15.3438  8.53774e-08  -8.92526
C 2.21069  -17.1123  8.89067
O -15.7893  0.887722  -8.89067
C 1.77573  -16.2296  8.78792
O -16.2243  1.7704  -8.78792
C 1.36117  -15.3561  8.61997
O -16.6388  2.64386  -8.61997
C 0.975804  -14.4945  8.39148
O -17.0242  3.50551  -8.39148
C 0.627143  -13.6451  8.10841
O -17.3729  4.35486  -8.10841
C 0.32157  -12.8064  7.77767
O -17.6784  5.19365  -7.77767
C 0.0647087  -11.974  7.4068
O -17.9353  6.02601  -7.4068
C -0.138  -11.1416  7.00378
O 17.862  6.85838  -7.00378
C -0.280632  -10.3004  6.577
O 17.7194  7.69957  -6.577
C -0.356066  -9.43916  6.13537
O 17.6439  8.56084  -6.13537
C -0.355296  -8.54388  5.68861
O 17.6447  9.45612  -5.68861
C -0.266917  -7.59787  5.2477
O 17.7331  10.4021  -5.2477
C -0.0771207  -6.58183  4.82549
O 17.9229  11.4182  -4.82549
C 0.229069  -5.47532  4.43737
O -17.7709  12.5247  -4.43737
C 0.664082  -4.2605  4.10163
O -17.3359  13.7395  -4.10163
C 1.23031  -2.92973  3.83907
O -16.7697  15.0703  -3.83907
C 1.90962  -1.49597  3.67052
O -16.0904  16.504  -3.67052
C 2.65617  1.47878e-07  3.61225
O -15.3438  -18  -3.61225
C 2.9474  2.56132e-07  2.72867
O -15.0526  -18  -2.72867
C 3.90066  1.73989  2.79646
O -14.0993  -16.2601  -2.79646
C 4.7346  3.36506  2.98944
O -13.2654  -14.6349  -2.98944
C 5.3837  4.81456  3.28237
O -12.6163  -13.1854  -3.28237
C 5.84009  6.08518  3.64634
O -12.1599  -11.9148  -3.64634
C 6.12674  7.20451  4.05599
O -11.8733  -10.7955  -4.05599
C 6.27411  8.20772  4.49144
O -11.7259  -9.79228  -4.49144
C 6.30948  9.12667  4.93745
O -11.6905  -8.87333  -4.93745
C 6.25417  9.98717  5.3821
O -11.7458  -8.01283  -5.3821
C 6.12398  10.8092  5.81565
O -11.876  -7.19083  -5.81565
C 5.9305  11.6079  6.22967
O -12.0695  -6.39209  -6.22967
C 5.68239  12.3949  6.61659
O -12.3176  -5.60515  -6.61659
C 5.38652  13.1785  6.96936
O -12.6135  -4.82151  -6.96936
C 5.04881  13.9648  7.28139
O -12.9512  -4.03523  -7.28139
C 4.67496  14.7574  7.54653
O -13.325  -3.24259  -7.54653
C 4.27095  15.5581  7.75927
O -13.729  -2.44187  -7.75927
C 3.84338  16.3668  7.91489
O -14.1566  -1.63323  -7.91489
C 3.39955  17.1817  8.00979
O -14.6005  -0.818329  -8.00979
C 2.9474  -18  8.04168
O -15.0526  1.20742e-07  -8.04168
C 2.49526  -17.1817  8.00979
O -15.5047  0.818329  -8.00979
C 2.05143  -16.3668  7.91489
O -15.9486  1.63323  -7.91489
C 1.62385  -15.5581  7.75927
O -16.3761  2.44187  -7.75927
C 1.21985  -14.7574  7.54653
O -16.7802  3.24259  -7.54653
C 0.845997  -13.9648  7.28139
O -17.154  4.03523  -7.28139
C 0.508285  -13.1785  6.96936
O -17.4917  4.82151  -6.96936
C 0.212411  -12.3949  6.61659
O -17.7876  5.60515  -6.61659
C -0.0356951  -11.6079  6.22967
O 17.9643  6.39209  -6.22967
C -0.229177  -10.8092  5.81565
O 17.7708  7.19083  -5.81565
C -0.359366  -9.98717  5.3821
O 17.6406  8.01283  -5.3821
C -0.414678  -9.12667  4.93745
O 17.5853  8.87333  -4.93745
C -0.379308  -8.20772  4.49144
O 17.6207  9.79228  -4.49144
C -0.231936  -7.20451  4.05599
O 17.7681  10.7955  -4.05599
C 0.0547102  -6.08517  3.64634
O -17.9453  11.9148  -3.64634
C 0.511104  -4.81456  3.28237
O -17.4889  13.1854  -3.28237
C 1.1602  -3.36506  2.98944
O -16.8398  14.6349  -2.98944
C 1.99415  -1.73989  2.79646
O -16.0059  16.2601  -2.79646
C 2.9474  2.56132e-07  2.72867
O -15.0526  -18  -2.72867
C 3.39622  2.41484e-07  1.87678
O -14.6038  -18  -1.87678
C 4.7341  2.15908  1.96101
O -13.2659  -15.8409  -1.96101
C 5.81401  4.06428  2.19288
O -12.186  -13.9357  -2.19288
C 6.55351  5.63722  2.52818
O -11.4465  -12.3628  -2.52818
C 6.99879  6.92817  2.92591
O -11.0012  -11.0718  -2.92591
C 7.22463  8.01593  3.35695
O -10.7754  -9.98407  -3.35695
C 7.2924  8.96582  3.80196
O -10.7076  -9.03418  -3.80196
C 7.24477  9.82432  4.24766
O -10.7552  -8.17568  -4.24766
C 7.11007  10.6233  4.68429
O -10.8899  -7.37668  -4.68429
C 6.90707  11.3848  5.10405
O -11.0929  -6.61523  -5.10405
C 6.6485  12.124  5.50025
O -11.3515  -5.87599  -5.50025
C 6.34335  12.8518  5.86686
O -11.6566  -5.14815  -5.86686
C 5.9984  13.5758  6.19825
O -12.0016  -4.42416  -6.19825
C 5.61927  14.3011  6.4892
O -12.3807  -3.69892  -6.4892
C 5.21112  15.0306  6.73486
O -12.7889  -2.96936  -6.73486
C 4.77911  15.7659  6.93093
O -13.2209  -2.2341  -6.93093
C 4.32867  16.5068  7.07377
O -13.6713  -1.49319  -7.07377
C 3.86564  17.2522  7.16064
O -14.1344  -0.747815  -7.16064
C 3.39622  -18  7.18979
O -14.6038  8.53774e-08  -7.18979
C 2.92679  -17.2522  7.16064
O -15.0732  0.747815  -7.16064
C 2.46376  -16.5068  7.07377
O -15.5362  1.49319  -7.07377
C 2.01333  -15.7659  6.93093
O -15.9867  2.2341  -6.93093
C 1.58131  -15.0306  6.73486
O -16.4187  2.96936  -6.73486
C 1.17316  -14.3011  6.4892
O -16.8268  3.69892  -6.4892
C 0.794034  -13.5758  6.19825
O -17.206  4.42416  -6.19825
C 0.449083  -12.8518  5.86686
O -17.5509  5.14815  -5.86686
C 0.14393  -12.124  5.50025
O -17.8561  5.87599  -5.50025
C -0.114637  -11.3848  5.10405
O 17.8854  6.61523  -5.10405
C -0.317631  -10.6233  4.68429
O 17.6824  7.37668  -4.68429
C -0.452332  -9.82432  4.24766
O 17.5477  8.17568  -4.24766
C -0.499961  -8.96582  3.80196
O 17.5  9.03418  -3.80196
C -0.432193  -8.01593  3.35695
O 17.5678  9.98407  -3.35695
C -0.206356  -6.92817  2.92591
O 17.7936  11.0718  -2.92591
C 0.238928  -5.63722  2.52818
O -17.7611  12.3628  -2.52818
C 0.978423  -4.06428  2.19288
O -17.0216  13.9357  -2.19288
C 2.05834  -2.15908  1.96101
O -15.9417  15.8409  -1.96101
C 3.39622  2.41484e-07  1.87678
O -14.6038  -18  -1.87678
C 4.08892  5.1933e-07  1.08044
O -13.9111  -18  -1.08044
C 6.28224  3.04605  1.19996
O -11.7178  -14.954  -1.19996
C 7.71018  5.33026  1.5005
O -10.2898  -12.6697  -1.5005
C 8.4457  6.92915  1.89315
O -9.5543  -11.0709  -1.89315
C 8.7619  8.11926  2.32533
O -9.2381  -9.88074  -2.32533
C 8.83442  9.07965  2.77101
O -9.16558  -8.92035  -2.77101
C 8.75739  9.90773  3.21612
O -9.24261  -8.09227  -3.21612
C 8.58162  10.6574  3.65178
O -9.41838  -7.34263  -3.65178
C 8.33581  11.36  4.07144
O -9.66419  -6.63995  -4.07144
C 8.03705  12.0352  4.46971
O -9.96295  -5.96477  -4.46971
C 7.69609  12.6955  4.84173
O -10.3039  -5.3045  -4.84173
C 7.32018  13.3492  5.18299
O -10.6798  -4.65079  -5.18299
C 6.91463  14.0019  5.48922
O -11.0854  -3.99808  -5.48922
C 6.48375  14.6571  5.75639
O -11.5163  -3.34287  -5.75639
C 6.03146  15.3168  5.98078
O -11.9685  -2.68318  -5.98078
C 5.56167  15.9817  6.15909
O -12.4383  -2.01834  -6.15909
C 5.07841  16.6513  6.28857
O -12.9216  -1.34868  -6.28857
C 4.58599  17.3247  6.36712
O -13.414  -0.675333  -6.36712
C 4.08892  -18  6.39345
O -13.9111  1.20742e-07  -6.39345
C 3.59185  -17.3247  6.36712
O -14.4081  0.675333  -6.36712
C 3.09943  -16.6513  6.28857
O -14.9006  1.34868  -6.28857
C 2.61617  -15.9817  6.15909
O -15.3838  2.01834  -6.15909
C 2.14637  -15.3168  5.98078
O -15.8536  2.68318  -5.98078
C 1.69409  -14.6571  5.75639
O -16.3059  3.34287  -5.75639
C 1.26321  -14.0019  5.48922
O -16.7368  3.99808  -5.48922
C 0.857657  -13.3492  5.18299
O -17.1423  4.65079  -5.18299
C 0.481748  -12.6955  4.84173
O -17.5183  5.3045  -4.84173
C 0.140792  -12.0352  4.46971
O -17.8592  5.96477  -4.46971
C -0.157972  -11.36  4.07144
O 17.842  6.63995  -4.07144
C -0.403784  -10.6574  3.65178
O 17.5962  7.34263  -3.65178
C -0.579556  -9.90773  3.21612
O 17.4204  8.09227  -3.21612
C -0.656582  -9.07965  2.77101
O 17.3434  8.92035  -2.77101
C -0.584064  -8.11926  2.32533
O 17.4159  9.88074  -2.32533
C -0.267865  -6.92915  1.89315
O 17.7321  11.0709  -1.89315
C 0.467661  -5.33026  1.5005
O -17.5323  12.6697  -1.5005
C 1.8956  -3.04605  1.19996
O -16.1044  14.954  -1.19996
C 4.08892  5.1933e-07  1.08044
O -13.9111  -18  -1.08044
C 5.1692  0  0.385447
O -12.8308  18  -0.385447
C 9.8431  5.55379  0.612153
O -8.1569  -12.4462  -0.612153
C 11.1086  7.70219  1.02366
O -6.89141  -10.2978  -1.02366
C 11.3693  8.85182  1.46698
O -6.63072  -9.14818  -1.46698
C 11.2982  9.67863  1.91327
O -6.70181  -8.32137  -1.91327
C 11.0798  10.37  2.35299
O -6.92016  -7.63004  -2.35299
C 10.7813  10.9956  2.78075
O -7.2187  -7.00443  -2.78075
C 10.432  11.5873  3.19243
O -7.56798  -6.41266  -3.19243
C 10.0466  12.1621  3.58433
O -7.95336  -5.83794  -3.58433
C 9.63318  12.7295  3.95291
O -8.36682  -5.27048  -3.95291
C 9.1964  13.2957  4.29473
O -8.8036  -4.70427  -4.29473
C 8.73947  13.8645  4.60639
O -9.26053  -4.13546  -4.60639
C 8.26479  14.4383  4.88462
O -9.73521  -3.56174  -4.88462
C 7.77448  15.0182  5.12627
O -10.2255  -2.98185  -5.12627
C 7.27066  15.6046  5.32846
O -10.7293  -2.39542  -5.32846
C 6.7556  16.1972  5.48862
O -11.2444  -1.80283  -5.48862
C 6.2318  16.795  5.60464
O -11.7682  -1.20504  -5.60464
C 5.70202  17.3965  5.67492
O -12.298  -0.603499  -5.67492
C 5.1692  18  5.69846
O -12.8308  -0  -5.69846
C 4.63638  -17.3965  5.67492
O -13.3636  0.603499  -5.67492
C 4.1066  -16.795  5.60464
O -13.8934  1.20504  -5.60464
C 3.58281  -16.1972  5.48862
O -14.4172  1.80283  -5.48862
C 3.06774  -15.6046  5.32846
O -14.9323  2.39542  -5.32846
C 2.56392  -15.0182  5.12627
O -15.4361  2.98185  -5.12627
C 2.07361  -14.4383  4.88462
O -15.9264  3.56174  -4.88462
C 1.59894  -13.8645  4.60639
O -16.4011  4.13546  -4.60639
C 1.14201  -13.2957  4.29473
O -16.858  4.70427  -4.29473
C 0.705227  -12.7295  3.95291
O -17.2948  5.27048  -3.95291
C 0.29176  -12.1621  3.58433
O -17.7082  5.83794  -3.58433
C -0.0936172  -11.5873  3.19243
O 17.9064  6.41266  -3.19243
C -0.442898  -10.9956  2.78075
O 17.5571  7.00443  -2.78075
C -0.741434  -10.37  2.35299
O 17.2586  7.63004  -2.35299
C -0.959788  -9.67863  1.91327
O 17.0402  8.32137  -1.91327
C -1.03088  -8.85182  1.46698
O 16.9691  9.14818  -1.46698
C -0.770188  -7.70219  1.02366
O 17.2298  10.2978  -1.02366
C 0.495301  -5.55379  0.612153
O -17.5047  12.4462  -0.612153
C 5.1692  -0  0.385447
O -12.8308  18  -0.385447
C -11.1855  18  0.121953
O 6.81451  -0  -0.121953
C 16.9179  11.003  0.453801
O -1.08209  -6.99698  -0.453801
C 15.6987  10.6861  0.880008
O -2.30126  -7.31391  -0.880008
C 14.9784  10.8732  1.30622
O -3.02161  -7.12683  -1.30622
C 14.3845  11.1944  1.72568
O -3.61549  -6.80559  -1.72568
C 13.8382  11.5733  2.13477
O -4.16181  -6.42668  -2.13477
C 13.3121  11.9848  2.5304
O -4.68791  -6.01525  -2.5304
C 12.7939  12.4184  2.90957
O -5.20612  -5.58159  -2.90957
C 12.277  12.8695  3.26931
O -5.72298  -5.13053  -3.26931
C 11.7577  13.3354  3.60667
O -6.24234  -4.66456  -3.60667
C 11.2334  13.8149  3.91869
O -6.76658  -4.18514  -3.91869
C 10.7029  14.3067  4.20248
O -7.29711  -3.69329  -4.20248
C 10.1653  14.8101  4.45522
O -7.83468  -3.18994  -4.45522
C 9.62055  15.3239  4.67427
O -8.37945  -2.67611  -4.67427
C 9.06892  15.847  4.85719
O -8.93108  -2.15299  -4.85719
C 8.5112  16.378  5.00186
O -9.4888  -1.62203  -5.00186
C 7.94855  16.9151  5.10652
O -10.0515  -1.0849  -5.10652
C 7.38243  17.4565  5.16985
O -10.6176  -0.543536  -5.16985
C 6.81451  18  5.19106
O -11.1855  -0  -5.19106
C 6.2466  -17.4565  5.16985
O -11.7534  0.543536  -5.16985
C 5.68048  -16.9151  5.10652
O -12.3195  1.0849  -5.10652
C 5.11783  -16.378  5.00186
O -12.8822  1.62203  -5.00186
C 4.56011  -15.847  4.85719
O -13.4399  2.15299  -4.85719
C 4.00848  -15.3239  4.67427
O -13.9915  2.67611  -4.67427
C 3.46371  -14.8101  4.45522
O -14.5363  3.18994  -4.45522
C 2.92614  -14.3067  4.20248
O -15.0739  3.69329  -4.20248
C 2.3956  -13.8149  3.91869
O -15.6044  4.18514  -3.91869
C 1.87137  -13.3354  3.60667
O -16.1286  4.66456  -3.60667
C 1.35201  -12.8695  3.26931
O -16.648  5.13053  -3.26931
C 0.83515  -12.4184  2.90957
O -17.1649  5.58159  -2.90957
C 0.316939  -11.9848  2.5304
O -17.6831  6.01525  -2.5304
C -0.209165  -11.5733  2.13477
O 17.7908  6.42668  -2.13477
C -0.755482  -11.1944  1.72568
O 17.2445  6.80559  -1.72568
C -1.34936  -10.8732  1.30622
O 16.6506  7.12683  -1.30622
C -2.06971  -10.6861  0.880008
O 15.9303  7.31391  -0.880008
C -3.28888  -11.003  0.453801
O 14.7111  6.99698  -0.453801
C -11.1855  -18  0.121953
O 6.81451  0  -0.121953
C -9  18  0.315492
O 9  -0  -0.315492
C -14.7854  13.1217  0.526248
O 3.21457  -4.87828  -0.526248
C -16.88  11.9367  0.897048
O 1.11999  -6.06326  -0.897048
C -17.9987  11.7326  1.2921
O 0.00134856  -6.26744  -1.2921
C 17.1887  11.8415  1.68801
O -0.81132  -6.15846  -1.68801
C 16.5036  12.0875  2.07696
O -1.49639  -5.91246  -2.07696
C 15.8808  12.4072  2.45439
O -2.11925  -5.59276  -2.45439
C 15.2905  12.7729  2.81673
O -2.70946  -5.2271  -2.81673
C 14.7175  13.1707  3.16077
O -3.28247  -4.82935  -3.16077
C 14.1529  13.5929  3.48349
O -3.84714  -4.40715  -3.48349
C 13.5911  14.0349  3.78194
O -4.40889  -3.96512  -3.78194
C 13.0289  14.4937  4.05331
O -4.97112  -3.50635  -4.05331
C 12.4641  14.9669  4.2949
O -5.53592  -3.03314  -4.2949
C 11.8956  15.4525  4.50419
O -6.10442  -2.54747  -4.50419
C 11.3229  15.9488  4.67888
O -6.67705  -2.0512  -4.67888
C 10.7463  16.4538  4.81699
O -7.25368  -1.54624  -4.81699
C 10.1663  16.9654  4.91686
O -7.83371  -1.03462  -4.91686
C 9.58379  17.4815  4.97729
O -8.41621  -0.518456  -4.97729
C 9  18  4.99752
O -9  -0  -4.99752
C 8.41621  -17.4815  4.97729
O -9.58379  0.518456  -4.97729
C 7.83371  -16.9654  4.91686
O -10.1663  1.03462  -4.91686
C 7.25368  -16.4538  4.81699
O -10.7463  1.54624  -4.81699
C 6.67705  -15.9488  4.67888
O -11.3229  2.0512  -4.67888
C 6.10442  -15.4525  4.50419
O -11.8956  2.54747  -4.50419
C 5.53592  -14.9669  4.2949
O -12.4641  3.03314  -4.2949
C 4.97112  -14.4937  4.05331
O -13.0289  3.50635  -4.05331
C 4.40889  -14.0349  3.78194
O -13.5911  3.96512  -3.78194
C 3.84714  -13.5929  3.48349
O -14.1529  4.40715  -3.48349
C 3.28247  -13.1707  3.16077
O -14.7175  4.82935  -3.16077
C 2.70946  -12.7729  2.81673
O -15.2905  5.2271  -2.81673
C 2.11925  -12.4072  2.45439
O -15.8808  5.59276  -2.45439
C 1.49639  -12.0875  2.07696
O -16.5036  5.91246  -2.07696
C 0.811319  -11.8415  1.68801
O -17.1887  6.15846  -1.68801
C -0.00134894  -11.7326  1.2921
O 17.9987  6.26744  -1.2921
C -1.11999  -11.9367  0.897048
O 16.88  6.06326  -0.897048
C -3.21457  -13.1217  0.526248
O 14.7854  4.87828  -0.526248
C -9  -18  0.315492
O 9  0  -0.315492
C -6.81451  18  0.121953
O 11.1855  -0  -0.121953
C -14.7111  11.003  0.453801
O 3.28888  -6.99698  -0.453801
C -15.9303  10.6861  0.880008
O 2.06971  -7.31391  -0.880008
C -16.6506  10.8732  1.30622
O 1.34936  -7.12683  -1.30622
C -17.2445  11.1944  1.72568
O 0.755482  -6.80559  -1.72568
C -17.7908  11.5733  2.13477
O 0.209165  -6.42668  -2.13477
C 17.6831  11.9848  2.5304
O -0.316939  -6.01525  -2.5304
C 17.1649  12.4184  2.90957
O -0.83515  -5.58159  -2.90957
C 16.648  12.8695  3.26931
O -1.35201  -5.13053  -3.26931
C 16.1286  13.3354  3.60667
O -1.87137  -4.66456  -3.60667
C 15.6044  13.8149  3.91869
O -2.3956  -4.18514  -3.91869
C 15.0739  14.3067  4.20248
O -2.92614  -3.69329  -4.20248
C 14.5363  14.8101  4.45522
O -3.46371  -3.18994  -4.45522
C 13.9915  15.3239  4.67427
O -4.00848  -2.67611  -4.67427
C 13.4399  15.847  4.85719
O -4.56011  -2.15299  -4.85719
C 12.8822  16.378  5.00186
O -5.11783  -1.62203  -5.00186
C 12.3195  16.9151  5.10652
O -5.68048  -1.0849  -5.10652
C 11.7534  17.4565  5.16985
O -6.2466  -0.543536  -5.16985
C 11.1855  18  5.19106
O -6.81451  -0  -5.19106
C 10.6176  -17.4565  5.16985
O -7.38243  0.543536  -5.16985
C 10.0515  -16.9151  5.10652
O -7.94855  1.0849  -5.10652
C 9.4888  -16.378  5.00186
O -8.5112  1.62203  -5.00186
C 8.93108  -15.847  4.85719
O -9.06892  2.15299  -4.85719
C 8.37945  -15.3239  4.67427
O -9.62055  2.67611  -4.67427
C 7.83468  -14.8101  4.45522
O -10.1653  3.18994  -4.45522
C 7.29711  -14.3067  4.20248
O -10.7029  3.69329  -4.20248
C 6.76658  -13.8149  3.91869
O -11.2334  4.18514  -3.91869
C 6.24234  -13.3354  3.60667
O -11.7577  4.66456  -3.60667
C 5.72298  -12.8695  3.26931
O -12.277  5.13053  -3.26931
C 5.20612  -12.4184  2.90957
O -12.7939  5.58159  -2.90957
C 4.68791  -11.9848  2.5304
O -13.3121  6.01525  -2.5304
C 4.16181  -11.5733  2.13477
O -13.8382  6.42668  -2.13477
C 3.61549  -11.1944  1.72568
O -14.3845  6.80559  -1.72568
C 3.02161  -10.8732  1.30622
O -14.9784  7.12683  -1.30622
C 2.30126  -10.6861  0.880008
O -15.6987  7.31391  -0.880008
C 1.08209  -11.003  0.453801
O -16.9179  6.99698  -0.453801
C -6.81451  -18  0.121953
O 11.1855  0  -0.121953
C 12.8308  0  0.385447
O -5.1692  18  -0.385447
C 17.5047  5.55379  0.612153
O -0.495301  -12.4462  -0.612153
C -17.2298  7.70219  1.02366
O 0.770188  -10.2978  -1.02366
C -16.9691  8.85182  1.46698
O 1.03088  -9.14818  -1.46698
C -17.0402  9.67863  1.91327
O 0.959788  -8.32137  -1.91327
C -17.2586  10.37  2.35299
O 0.741434  -7.63004  -2.35299
C -17.5571  10.9956  2.78075
O 0.442898  -7.00443  -2.78075
C -17.9064  11.5873  3.19243
O 0.0936172  -6.41266  -3.19243
C 17.7082  12.1621  3.58433
O -0.29176  -5.83794  -3.58433
C 17.2948  12.7295  3.95291
O -0.705227  -5.27048  -3.95291
C 16.858  13.2957  4.29473
O -1.14201  -4.70427  -4.29473
C 16.4011  13.8645  4.60639
O -1.59894  -4.13546  -4.60639
C 15.9264  14.4383  4.88462
O -2.07361  -3.56174  -4.88462
C 15.4361  15.0182  5.12627
O -2.56392  -2.98185  -5.12627
C 14.9323  15.6046  5.32846
O -3.06774  -2.39542  -5.32846
C 14.4172  16.1972  5.48862
O -3.58281  -1.80283  -5.48862
C 13.8934  16.795  5.60464
O -4.1066  -1.20504  -5.60464
C 13.3636  17.3965  5.67492
O -4.63638  -0.603499  -5.67492
C 12.8308  18  5.69846
O -5.1692  -0  -5.69846
C 12.298  -17.3965  5.67492
O -5.70202  0.603499  -5.67492
C 11.7682  -16.795  5.60464
O -6.2318  1.20504  -5.60464
C 11.2444  -16.1972  5.48862
O -6.7556  1.80283  -5.48862
C 10.7293  -15.6046  5.32846
O -7.27066  2.39542  -5.32846
C 10.2255  -15.0182  5.12627
O -7.77448  2.98185  -5.12627
C 9.73521  -14.4383  4.88462
O -8.26479  3.56174  -4.88462
C 9.26053  -13.8645  4.60639
O -8.73947  4.13546  -4.60639
C 8.8036  -13.2957  4.29473
O -9.1964  4.70427  -4.29473
C 8.36682  -12.7295  3.95291
O -9.63318  5.27048  -3.95291
C 7.95336  -12.1621  3.58433
O -10.0466  5.83794  -3.58433
C 7.56798  -11.5873  3.19243
O -10.432  6.41266  -3.19243
C 7.2187  -10.9956  2.78075
O -10.7813  7.00443  -2.78075
C 6.92016  -10.37  2.35299
O -11.0798  7.63004  -2.35299
C 6.70181  -9.67863  1.91327
O -11.2982  8.32137  -1.91327
C 6.63072  -8.85182  1.46698
O -11.3693  9.14818  -1.46698
C 6.89141  -7.70219  1.02366
O -11.1086  10.2978  -1.02366
C 8.1569  -5.55379  0.612153
O -9.8431  12.4462  -0.612153
C 12.8308  -0  0.385447
O -5.1692  18  -0.385447
C 13.9111  0  1.08044
O -4.08892  18  -1.08044
C 16.1044  3.04605  1.19996
O -1.8956  -14.954  -1.19996
C 17.5323  5.33026  1.5005
O -0.46766  -12.6697  -1.5005
C -17.7321  6.92915  1.89315
O 0.267866  -11.0709  -1.89315
C -17.4159  8.11926  2.32533
O 0.584064  -9.88074  -2.32533
C -17.3434  9.07965  2.77101
O 0.656582  -8.92035  -2.77101
C -17.4204  9.90773  3.21612
O 0.579556  -8.09227  -3.21612
C -17.5962  10.6574  3.65178
O 0.403784  -7.34263  -3.65178
C -17.842  11.36  4.07144
O 0.157972  -6.63995  -4.07144
C 17.8592  12.0352  4.46971
O -0.140793  -5.96477  -4.46971
C 17.5183  12.6955  4.84173
O -0.481748  -5.3045  -4.84173
C 17.1423  13.3492  5.18299
O -0.857657  -4.65079  -5.18299
C 16.7368  14.0019  5.48922
O -1.26321  -3.99808  -5.48922
C 16.3059  14.6571  5.75639
O -1.69409  -3.34287  -5.75639
C 15.8536  15.3168  5.98078
O -2.14637  -2.68318  -5.98078
C 15.3838  15.9817  6.15909
O -2.61617  -2.01834  -6.15909
C 14.9006  16.6513  6.28857
O -3.09943  -1.34868  -6.28857
C 14.4081  17.3247  6.36712
O -3.59185  -0.675333  -6.36712
C 13.9111  18  6.39345
O -4.08892  -0  -6.39345
C 13.414  -17.3247  6.36712
O -4.58599  0.675333  -6.36712
C 12.9216  -16.6513  6.28857
O -5.07841  1.34868  -6.28857
C 12.4383  -15.9817  6.15909
O -5.56167  2.01834  -6.15909
C 11.9685  -15.3168  5.98078
O -6.03146  2.68318  -5.98078
C 11.5163  -14.6571  5.75639
O -6.48375  3.34287  -5.75639
C 11.0854  -14.0019  5.48922
O -6.91463  3.99808  -5.48922
C 10.6798  -13.3492  5.18299
O -7.32018  4.65079  -5.18299
C 10.3039  -12.6955  4.84173
O -7.69609  5.3045  -4.84173
C 9.96295  -12.0352  4.46971
O -8.03705  5.96477  -4.46971
C 9.66419  -11.36  4.07144
O -8.33581  6.63995  -4.07144
C 9.41838  -10.6574  3.65178
O -8.58162  7.34263  -3.65178
C 9.24261  -9.90773  3.21612
O -8.75739  8.09227  -3.21612
C 9.16558  -9.07965  2.77101
O -8.83442  8.92035  -2.77101
C 9.2381  -8.11926  2.32533
O -8.7619  9.88074  -2.32533
C 9.5543  -6.92915  1.89315
O -8.4457  11.0709  -1.89315
C 10.2898  -5.33026  1.5005
O -7.71018  12.6697  -1.5005
C 11.7178  -3.04605  1.19996
O -6.28224  14.954  -1.19996
C 13.9111  -0  1.08044
O -4.08892  18  -1.08044
C 14.6038  2.41484e-07  1.87678
O -3.39622  -18  -1.87678
C 15.9417  2.15908  1.96101
O -2.05834  -15.8409  -1.96101
C 17.0216  4.06428  2.19288
O -0.978423  -13.9357  -2.19288
C 17.7611  5.63722  2.52818
O -0.238928  -12.3628  -2.52818
C -17.7936  6.92817  2.92591
O 0.206356  -11.0718  -2.92591
C -17.5678  8.01593  3.35695
O 0.432193  -9.98407  -3.35695
C -17.5  8.96582  3.80196
O 0.499961  -9.03418  -3.80196
C -17.5477  9.82432  4.24766
O 0.452332  -8.17568  -4.24766
C -17.6824  10.6233  4.68429
O 0.317631  -7.37668  -4.68429
C -17.8854  11.3848  5.10405
O 0.114637  -6.61523  -5.10405
C 17.8561  12.124  5.50025
O -0.143931  -5.87599  -5.50025
C 17.5509  12.8518  5.86686
O -0.449083  -5.14815  -5.86686
C 17.206  13.5758  6.19825
O -0.794034  -4.42416  -6.19825
C 16.8268  14.3011  6.4892
O -1.17316  -3.69892  -6.4892
C 16.4187  15.0306  6.73486
O -1.58131  -2.96936  -6.73486
C 15.9867  15.7659  6.93093
O -2.01333  -2.2341  -6.93093
C 15.5362  16.5068  7.07377
O -2.46376  -1.49319  -7.07377
C 15.0732  17.2522  7.16064
O -2.92679  -0.747815  -7.16064
C 14.6038  -18  7.18979
O -3.39622  8.53774e-08  -7.18979
C 14.1344  -17.2522  7.16064
O -3.86564  0.747815  -7.16064
C 13.6713  -16.5068  7.07377
O -4.32867  1.49319  -7.07377
C 13.2209  -15.7659  6.93093
O -4.77911  2.2341  -6.93093
C 12.7889  -15.0306  6.73486
O -5.21112  2.96936  -6.73486
C 12.3807  -14.3011  6.4892
O -5.61927  3.69892  -6.4892
C 12.0016  -13.5758  6.19825
O -5.9984  4.42416  -6.19825
C 11.6566  -12.8518  5.86686
O -6.34335  5.14815  -5.86686
C 11.3515  -12.124  5.50025
O -6.6485  5.87599  -5.50025
C 11.0929  -11.3848  5.10405
O -6.90707  6.61523  -5.10405
C 10.8899  -10.6233  4.68429
O -7.11007  7.37668  -4.68429
C 10.7552  -9.82432  4.24766
O -7.24477  8.17568  -4.24766
C 10.7076  -8.96582  3.80196
O -7.2924  9.03418  -3.80196
C 10.7754  -8.01593  3.35695