80
ksi trajectory with 10 deg step !! manualy cropped, in 10th degrees !!
U -18 -18 -10
W 18 -18 -10
F -18 18 -10
H -18 -18 10
B -18 18 10
B 18 -18 10
B 18 18 -10
B 18 18 10
C 10.0235  0  2
O -7.97652  -18  -2
C -5.4615  2.68893  2.22
O 12.5385  -15.3111  -2.22
C -3.70044  4.62623  2.77649
O 14.2996  -13.3738  -2.77649
C -2.62559  5.88204  3.51081
O 15.3744  -12.118  -3.51081
C -1.9681  6.72774  4.32975
O 16.0319  -11.2723  -4.32975
C -1.5537  7.34009  5.18723
O 16.4463  -10.6599  -5.18723
C -1.28912  7.81432  6.05546
O 16.7109  -10.1857  -6.05546
C -1.12494  8.19873  6.90443
O 16.8751  -9.80127  -6.90443
C -1.03494  8.50278  7.66055
O 16.9651  -9.49722  -7.66055
C -1.00624  8.64663  8.03885
O 16.9938  -9.35337  -8.03885
C 14.9181  8.50278  7.66055
O -3.0819  -9.49722  -7.66055
C 14.8281  8.19873  6.90443
O -3.1719  -9.80127  -6.90443
C 14.6639  7.81432  6.05546
O -3.33608  -10.1857  -6.05546
C 14.3993  7.34009  5.18723
O -3.60066  -10.6599  -5.18723
C 13.9849  6.72774  4.32975
O -4.01506  -11.2723  -4.32975
C 13.3274  5.88204  3.51081
O -4.67255  -12.118  -3.51081
C 12.2526  4.62623  2.77649
O -5.7474  -13.3738  -2.77649
C 10.4915  2.68893  2.22
O -7.50846  -15.3111  -2.22
C -10.0235  0  2
O 7.97652  -18  -2
C 5.4615  -2.68893  2.22
O -12.5385  15.3111  -2.22
C 3.70044  -4.62623  2.77649
O -14.2996  13.3738  -2.77649
C 2.62559  -5.88204  3.51081
O -15.3744  12.118  -3.51081
C 1.9681  -6.72774  4.32975
O -16.0319  11.2723  -4.32975
C 1.5537  -7.34009  5.18723
O -16.4463  10.6599  -5.18723
C 1.28912  -7.81432  6.05546
O -16.7109  10.1857  -6.05546
C 1.12494  -8.19873  6.90443
O -16.8751  9.80127  -6.90443
C 1.03494  -8.50278  7.66055
O -16.9651  9.49722  -7.66055
C 1.00624  -8.64663  8.03885
O -16.9938  9.35337  -8.03885
C -14.9181  -8.50278  7.66055
O 3.0819  9.49722  -7.66055
C -14.8281  -8.19873  6.90443
O 3.1719  9.80127  -6.90443
C -14.6639  -7.81432  6.05546
O 3.33608  10.1857  -6.05546
C -14.3993  -7.34009  5.18723
O 3.60066  10.6599  -5.18723
C -13.9849  -6.72774  4.32975
O 4.01506  11.2723  -4.32975
C -13.3274  -5.88204  3.51081
O 4.67255  12.118  -3.51081
C -12.2526  -4.62623  2.77649
O 5.7474  13.3738  -2.77649
C -10.4915  -2.68893  2.22
O 7.50846  15.3111  -2.22
C 10.0235  0  2
O -7.97652  -18  -2
