5184
ksi&psi trajectory with 10 & 10 deg step !! manualy cropped, in 10th degrees !!
C 0.422133  10.2862  6.08584
O -17.5779  -7.71384  -6.08584
C 0.975126  11.4275  6.13426
O -17.0249  -6.57248  -6.13426
C 1.50175  12.5484  6.27676
O -16.4982  -5.4516  -6.27676
C 1.97983  13.6327  6.50563
O -16.0202  -4.36728  -6.50563
C 2.39381  14.6714  6.80968
O -15.6062  -3.32865  -6.80968
C 2.73488  15.6624  7.17588
O -15.2651  -2.33755  -7.17588
C 2.99947  16.6101  7.59077
O -15.0005  -1.38988  -7.59077
C 3.18722  17.5226  8.04125
O -14.8128  -0.477377  -8.04125
C 3.29913  -17.5894  8.51492
O -14.7009  0.410643  -8.51492
C 3.33629  -16.7138  9
O -14.6637  1.28616  -9
C 3.29913  -15.8383  9.48508
O -14.7009  2.16168  -9.48508
C 3.18722  -14.9503  9.95875
O -14.8128  3.0497  -9.95875
C 2.99947  -14.0378  10.4092
O -15.0005  3.9622  -10.4092
C 2.73488  -13.0901  10.8241
O -15.2651  4.90988  -10.8241
C 2.39381  -12.099  11.1903
O -15.6062  5.90097  -11.1903
C 1.97983  -11.0604  11.4944
O -16.0202  6.9396  -11.4944
C 1.50175  -9.97608  11.7232
O -16.4983  8.02392  -11.7232
C 0.975126  -8.85519  11.8657
O -17.0249  9.14481  -11.8657
C 0.422133  -7.71384  11.9142
O -17.5779  10.2862  -11.9142
C -0.130861  -6.57248  11.8657
O 17.8691  11.4275  -11.8657
C -0.657485  -5.4516  11.7232
O 17.3425  12.5484  -11.7232
C -1.13556  -4.36728  11.4944
O 16.8644  13.6327  -11.4944
C -1.54954  -3.32865  11.1903
O 16.4505  14.6714  -11.1903
C -1.89061  -2.33755  10.8241
O 16.1094  15.6624  -10.8241
C -2.15521  -1.38988  10.4092
O 15.8448  16.6101  -10.4092
C -2.34296  -0.477377  9.95875
O 15.657  17.5226  -9.95875
C -2.45487  0.410643  9.48508
O 15.5451  -17.5894  -9.48508
C -2.49202  1.28616  9
O 15.508  -16.7138  -9
C -2.45487  2.16168  8.51492
O 15.5451  -15.8383  -8.51492
C -2.34296  3.0497  8.04125
O 15.657  -14.9503  -8.04125
C -2.15521  3.9622  7.59077
O 15.8448  -14.0378  -7.59077
C -1.89061  4.90988  7.17588
O 16.1094  -13.0901  -7.17588
C -1.54954  5.90097  6.80968
O 16.4505  -12.099  -6.80968
C -1.13556  6.9396  6.50563
O 16.8644  -11.0604  -6.50563
C -0.657485  8.02392  6.27676
O 17.3425  -9.97608  -6.27676
C -0.130861  9.14481  6.13426
O 17.8691  -8.85519  -6.13426
C 0.422133  10.2862  6.08584
O -17.5779  -7.71384  -6.08584
C 0.428621  10.2862  5.08859
O -17.5714  -7.71384  -5.08859
C 1.04959  11.5498  5.14219
O -16.9504  -6.45017  -5.14219
C 1.63249  12.7812  5.29908
O -16.3675  -5.21878  -5.29908
C 2.14735  13.9563  5.54857
O -15.8526  -4.04374  -5.54857
C 2.57622  15.0632  5.87576
O -15.4238  -2.93681  -5.87576
C 2.91218  16.1017  6.26423
O -15.0878  -1.89832  -6.26423
C 3.15584  17.0794  6.69794
O -14.8442  -0.920587  -6.69794
C 3.31151  -17.9916  7.16215
O -14.6885  0.00843177  -7.16215
C 3.3846  -17.0975  7.64355
O -14.6154  0.902505  -7.64355
C 3.38003  -16.2244  8.13003
O -14.62  1.77557  -8.13003
C 3.30162  -15.3591  8.61025
O -14.6984  2.6409  -8.61025
C 3.1521  -14.4893  9.07323
O -14.8479  3.51071  -9.07323
C 2.9335  -13.6042  9.50802
O -15.0665  4.39575  -9.50802
C 2.64791  -12.6952  9.90347
O -15.3521  5.30481  -9.90347
C 2.29852  -11.756  10.2483
O -15.7015  6.24403  -10.2483
C 1.89086  -10.784  10.5313
O -16.1091  7.21596  -10.5313
C 1.43394  -9.78124  10.7423
O -16.5661  8.21876  -10.7423
C 0.940889  -8.75422  10.8728
O -17.0591  9.24578  -10.8728
C 0.428621  -7.71384  10.9169
O -17.5714  10.2862  -10.9169
C -0.0836474  -6.67345  10.8728
O 17.9164  11.3265  -10.8728
C -0.576699  -5.64643  10.7423
O 17.4233  12.3536  -10.7423
C -1.03362  -4.64364  10.5313
O 16.9664  13.3564  -10.5313
C -1.44128  -3.67171  10.2483
O 16.5587  14.3283  -10.2483
C -1.79067  -2.73249  9.90347
O 16.2093  15.2675  -9.90347
C -2.07626  -1.82343  9.50802
O 15.9237  16.1766  -9.50802
C -2.29486  -0.93839  9.07323
O 15.7051  17.0616  -9.07323
C -2.44438  -0.0685787  8.61025
O 15.5556  17.9314  -8.61025
C -2.52278  0.796757  8.13003
O 15.4772  -17.2032  -8.13003
C -2.52736  1.66982  7.64355
O 15.4726  -16.3302  -7.64355
C -2.45427  2.56389  7.16215
O 15.5457  -15.4361  -7.16215
C -2.2986  3.49291  6.69794
O 15.7014  -14.5071  -6.69794
C -2.05494  4.47064  6.26423
O 15.9451  -13.5294  -6.26423
C -1.71897  5.50913  5.87576
O 16.281  -12.4909  -5.87576
C -1.29011  6.61606  5.54857
O 16.7099  -11.3839  -5.54857
C -0.77525  7.79111  5.29908
O 17.2248  -10.2089  -5.29908
C -0.192351  9.02249  5.14219
O 17.8076  -8.97751  -5.14219
C 0.428621  10.2862  5.08859
O -17.5714  -7.71384  -5.08859
C 0.449117  10.2862  4.0915
O -17.5509  -7.71384  -4.0915
C 1.18202  11.7117  4.15197
O -16.818  -6.28826  -4.15197
C 1.85529  13.0832  4.32747
O -16.1447  -4.91679  -4.32747
C 2.42672  14.364  4.60243
O -15.5733  -3.63604  -4.60243
C 2.87744  15.5409  4.9565
O -15.1226  -2.45908  -4.9565
C 3.20677  16.6195  5.36894
O -14.7932  -1.38052  -5.36894
C 3.42372  17.615  5.82106
O -14.5763  -0.385002  -5.82106
C 3.54032  -17.4537  6.29684
O -14.4597  0.546256  -6.29684
C 3.56805  -16.5682  6.78269
O -14.4319  1.43176  -6.78269
C 3.51639  -15.7118  7.26675
O -14.4836  2.28822  -7.26675
C 3.39263  -14.8698  7.73834
O -14.6074  3.13016  -7.73834
C 3.20231  -14.0302  8.18739
O -14.7977  3.96981  -8.18739
C 2.94986  -13.1828  8.60415
O -15.0501  4.81716  -8.60415
C 2.63945  -12.3202  8.97897
O -15.3605  5.67981  -8.97897
C 2.27587  -11.4373  9.30239
O -15.7241  6.56269  -9.30239
C 1.86538  -10.5323  9.56539
O -16.1346  7.46771  -9.56539
C 1.41644  -9.60651  9.75992
O -16.5836  8.39349  -9.75992
C 0.939982  -8.66459  9.87947
O -17.06  9.33541  -9.87947
C 0.449117  -7.71384  9.91981
O -17.5509  10.2862  -9.91981
C -0.0417483  -6.76309  9.87947
O 17.9583  11.2369  -9.87947
C -0.518207  -5.82117  9.75992
O 17.4818  12.1788  -9.75992
C -0.967145  -4.89539  9.56539
O 17.0329  13.1046  -9.56539
C -1.37763  -3.99036  9.30239
O 16.6224  14.0096  -9.30239
C -1.74122  -3.10749  8.97897
O 16.2588  14.8925  -8.97897
C -2.05163  -2.24484  8.60415
O 15.9484  15.7552  -8.60415
C -2.30407  -1.39749  8.18739
O 15.6959  16.6025  -8.18739
C -2.49439  -0.557838  7.73834
O 15.5056  17.4422  -7.73834
C -2.61815  0.2841  7.26675
O 15.3818  -17.7159  -7.26675
C -2.66982  1.14057  6.78269
O 15.3302  -16.8594  -6.78269
C -2.64209  2.02607  6.29684
O 15.3579  -15.9739  -6.29684
C -2.52548  2.95732  5.82106
O 15.4745  -15.0427  -5.82106
C -2.30854  3.95285  5.36894
O 15.6915  -14.0472  -5.36894
C -1.9792  5.0314  4.9565
O 16.0208  -12.9686  -4.9565
C -1.52849  6.20836  4.60243
O 16.4715  -11.7916  -4.60243
C -0.957055  7.48912  4.32747
O 17.0429  -10.5109  -4.32747
C -0.283785  8.86058  4.15197
O 17.7162  -9.13942  -4.15197
C 0.449117  10.2862  4.0915
O -17.5509  -7.71384  -4.0915
C 0.487143  10.2862  3.09481
O -17.5129  -7.71384  -3.09481
C 1.41438  11.9529  3.16554
O -16.5856  -6.04714  -3.16554
C 2.23507  13.5181  3.3677
O -15.7649  -4.48186  -3.3677
C 2.88746  14.9254  3.67665
O -15.1125  -3.07458  -3.67665
C 3.35996  16.1684  4.06346
O -14.64  -1.83159  -4.06346
C 3.66992  17.2699  4.50207
O -14.3301  -0.730133  -4.50207
C 3.84331  -17.7387  4.97158
O -14.1567  0.261349  -4.97158
C 3.90439  -16.8272  5.45569
O -14.0956  1.17282  -5.45569
C 3.87253  -15.9706  5.94145
O -14.1275  2.02939  -5.94145
C 3.76212  -15.1489  6.41813
O -14.2379  2.85111  -6.41813
C 3.58362  -14.3463  6.8763
O -14.4164  3.65374  -6.8763
C 3.34474  -13.5505  7.30729
O -14.6553  4.44952  -7.30729
C 3.0515  -12.7522  7.70282
O -14.9485  5.24776  -7.70282
C 2.7092  -11.9449  8.05493
O -15.2908  6.0551  -8.05493
C 2.32326  -11.1243  8.35595
O -15.6767  6.87566  -8.35595
C 1.89991  -10.289  8.59878
O -16.1001  7.71101  -8.59878
C 1.44662  -9.43973  8.77722
O -16.5534  8.56027  -8.77722
C 0.972319  -8.57971  8.88638
O -17.0277  9.42029  -8.88638
C 0.487143  -7.71384  8.92313
O -17.5129  10.2862  -8.92313
C 0.00196817  -6.84796  8.88638
O -17.998  11.152  -8.88638
C -0.472336  -5.98795  8.77722
O 17.5277  12.0121  -8.77722
C -0.925619  -5.13869  8.59878
O 17.0744  12.8613  -8.59878
C -1.34897  -4.30334  8.35595
O 16.651  13.6967  -8.35595
C -1.73491  -3.48278  8.05493
O 16.2651  14.5172  -8.05493
C -2.07721  -2.67544  7.70282
O 15.9228  15.3246  -7.70282
C -2.37046  -1.8772  7.30729
O 15.6295  16.1228  -7.30729
C -2.60934  -1.08142  6.8763
O 15.3907  16.9186  -6.8763
C -2.78783  -0.278786  6.41813
O 15.2122  17.7212  -6.41813
C -2.89824  0.542933  5.94145
O 15.1018  -17.4571  -5.94145
C -2.93011  1.3995  5.45569
O 15.0699  -16.6005  -5.45569
C -2.86902  2.31097  4.97158
O 15.131  -15.689  -4.97158
C -2.69563  3.30246  4.50207
O 15.3044  -14.6975  -4.50207
C -2.38567  4.40392  4.06346
O 15.6143  -13.5961  -4.06346
C -1.91317  5.6469  3.67665
O 16.0868  -12.3531  -3.67665
C -1.26078  7.05419  3.3677
O 16.7392  -10.9458  -3.3677
C -0.440093  8.61946  3.16554
O 17.5599  -9.38054  -3.16554
C 0.487143  10.2862  3.09481
O -17.5129  -7.71384  -3.09481
C 0.550356  10.2862  2.09887
O -17.4496  -7.71384  -2.09887
C 1.86194  12.3817  2.1879
O -16.1381  -5.61828  -2.1879
C 2.93381  14.2422  2.43407
O -15.0662  -3.7578  -2.43407
C 3.68324  15.7895  2.7923
O -14.3168  -2.21051  -2.7923
C 4.14791  17.0659  3.21982
O -13.8521  -0.934063  -3.21982
C 4.39608  -17.8555  3.68563
O -13.6039  0.144511  -3.68563
C 4.48571  -16.9121  4.16882
O -13.5143  1.08791  -4.16882
C 4.45783  -16.0582  4.65493
O -13.5422  1.94182  -4.65493
C 4.33986  -15.2618  5.13324
O -13.6601  2.73821  -5.13324
C 4.14996  -14.5005  5.59511
O -13.85  3.49948  -5.59511
C 3.90033  -13.7585  6.03303
O -14.0997  4.24154  -6.03303
C 3.59949  -13.0242  6.4401
O -14.4005  4.97584  -6.4401
C 3.25386  -12.2895  6.80977
O -14.7461  5.71047  -6.80977
C 2.86882  -11.5491  7.13578
O -15.1312  6.45091  -7.13578
C 2.44954  -10.7996  7.4122
O -15.5505  7.20036  -7.4122
C 2.00152  -10.04  7.63363
O -15.9985  7.96001  -7.63363
C 1.5309  -9.27082  7.79545
O -16.4691  8.72918  -7.79545
C 1.04464  -8.49431  7.89406
O -16.9554  9.50569  -7.89406
C 0.550355  -7.71384  7.92719
O -17.4496  10.2862  -7.92719
C 0.056074  -6.93336  7.89406
O -17.9439  11.0666  -7.89406
C -0.430188  -6.15686  7.79545
O 17.5698  11.8431  -7.79545
C -0.900805  -5.38768  7.63363
O 17.0992  12.6123  -7.63363
C -1.34883  -4.62804  7.4122
O 16.6512  13.372  -7.4122
C -1.76811  -3.87859  7.13578
O 16.2319  14.1214  -7.13578
C -2.15315  -3.13815  6.80977
O 15.8469  14.8619  -6.80977
C -2.49878  -2.40352  6.4401
O 15.5012  15.5965  -6.4401
C -2.79962  -1.66922  6.03303
O 15.2004  16.3308  -6.03303
C -3.04925  -0.927153  5.59511
O 14.9508  17.0728  -5.59511
C -3.23915  -0.165887  5.13324
O 14.7609  17.8341  -5.13324
C -3.35712  0.630502  4.65493
O 14.6429  -17.3695  -4.65493
C -3.385  1.48441  4.16882
O 14.615  -16.5156  -4.16882
C -3.29537  2.42781  3.68563
O 14.7046  -15.5722  -3.68563
C -3.0472  3.50639  3.21982
O 14.9528  -14.4936  -3.21982
C -2.58253  4.78284  2.7923
O 15.4175  -13.2172  -2.7923
C -1.8331  6.33012  2.43407
O 16.1669  -11.6699  -2.43407
C -0.761224  8.1906  2.1879
O 17.2388  -9.8094  -2.1879
C 0.550356  10.2862  2.09887
O -17.4496  -7.71384  -2.09887
C 0.655044  10.2862  1.10433
O -17.345  -7.71384  -1.10433
C 2.97602  13.4341  1.23902
O -15.024  -4.56585  -1.23902
C 4.44452  15.7336  1.57336
O -13.5555  -2.26635  -1.57336
C 5.17975  17.3078  2.00514
O -12.8202  -0.692153  -2.00514
C 5.4881  -17.5329  2.47738
O -12.5119  0.4671  -2.47738
C 5.55359  -16.6006  2.96296
O -12.4464  1.39935  -2.96296
C 5.47129  -15.7965  3.44751
O -12.5287  2.20347  -3.44751
C 5.2913  -15.0667  3.92192
O -12.7087  2.93326  -3.92192
C 5.04143  -14.3801  4.37945
O -12.9586  3.61992  -4.37945
C 4.73796  -13.7172  4.81438
O -13.262  4.28276  -4.81438
C 4.39095  -13.0657  5.22151
O -13.609  4.93431  -5.22151
C 4.0071  -12.4171  5.59585
O -13.9929  5.58292  -5.59585
C 3.59129  -11.7658  5.9326
O -14.4087  6.23416  -5.9326
C 3.14758  -11.1085  6.22712
O -14.8524  6.89147  -6.22712
C 2.67983  -10.4434  6.47508
O -15.3202  7.55665  -6.47508
C 2.19206  -9.76997  6.67253
O -15.8079  8.23003  -6.67253
C 1.6887  -9.08923  6.81614
O -16.3113  8.91077  -6.81614
C 1.17461  -8.403  6.90338
O -16.8254  9.597  -6.90338
C 0.655044  -7.71384  6.93264
O -17.345  10.2862  -6.93264
C 0.135479  -7.02467  6.90338
O -17.8645  10.9753  -6.90338
C -0.378612  -6.33844  6.81614
O 17.6214  11.6616  -6.81614
C -0.881975  -5.65771  6.67253
O 17.118  12.3423  -6.67253
C -1.36974  -4.98432  6.47508
O 16.6303  13.0157  -6.47508
C -1.83749  -4.31915  6.22712
O 16.1625  13.6809  -6.22712
C -2.2812  -3.66184  5.9326
O 15.7188  14.3382  -5.9326
C -2.69702  -3.0106  5.59585
O 15.303  14.9894  -5.59585
C -3.08087  -2.36198  5.22151
O 14.9191  15.638  -5.22151
C -3.42787  -1.71043  4.81438
O 14.5721  16.2896  -4.81438
C -3.73134  -1.04759  4.37945
O 14.2687  16.9524  -4.37945
C -3.98121  -0.360933  3.92192
O 14.0188  17.6391  -3.92192
C -4.1612  0.368849  3.44751
O 13.8388  -17.6312  -3.44751
C -4.24351  1.17297  2.96296
O 13.7565  -16.827  -2.96296
C -4.17801  2.10522  2.47738
O 13.822  -15.8948  -2.47738
C -3.86966  3.26448  2.00514
O 14.1303  -14.7355  -2.00514
C -3.13443  4.83868  1.57336
O 14.8656  -13.1613  -1.57336
C -1.66593  7.13818  1.23902
O 16.3341  -10.8618  -1.23902
C 0.655044  10.2862  1.10433
O -17.345  -7.71384  -1.10433
C 0.839735  10.2862  0.112658
O -17.1603  -7.71383  -0.112658
C 8.12747  -17.5569  0.507635
O -9.87253  0.443077  -0.507635
C 8.32697  -16.485  0.993506
O -9.67303  1.51499  -0.993506
C 8.10605  -15.8271  1.47779
O -9.89395  2.17293  -1.47779
C 7.77326  -15.2714  1.95447
O -10.2267  2.72862  -1.95447
C 7.39107  -14.7524  2.4199
O -10.6089  3.24758  -2.4199
C 6.97953  -14.2472  2.8708
O -11.0205  3.75275  -2.8708
C 6.54654  -13.7452  3.30388
O -11.4535  4.25475  -3.30388
C 6.09557  -13.2406  3.71579
O -11.9044  4.75943  -3.71579
C 5.62821  -12.7296  4.10313
O -12.3718  5.27037  -4.10313
C 5.14529  -12.2101  4.46243
O -12.8547  5.78986  -4.46243
C 4.64739  -11.6807  4.7902
O -13.3526  6.31933  -4.7902
C 4.13517  -11.1405  5.083
O -13.8648  6.85947  -5.083
C 3.60955  -10.5897  5.3375
O -14.3904  7.41033  -5.3375
C 3.0718  -10.0287  5.55059
O -14.9282  7.97134  -5.55059
C 2.52363  -9.45865  5.71951
O -15.4764  8.54135  -5.71951
C 1.96717  -8.88136  5.84193
O -16.0328  9.11864  -5.84193
C 1.40493  -8.29893  5.91612
O -16.5951  9.70107  -5.91612
C 0.839732  -7.71384  5.94097
O -17.1603  10.2862  -5.94097
C 0.274533  -7.12875  5.91612
O -17.7255  10.8713  -5.91612
C -0.287703  -6.54632  5.84193
O 17.7123  11.4537  -5.84193
C -0.844167  -5.96902  5.71951
O 17.1558  12.031  -5.71951
C -1.39234  -5.39902  5.55059
O 16.6077  12.601  -5.55059
C -1.93009  -4.83801  5.3375
O 16.0699  13.162  -5.3375
C -2.45571  -4.28715  5.083
O 15.5443  13.7129  -5.083
C -2.96792  -3.74701  4.7902
O 15.0321  14.253  -4.7902
C -3.46582  -3.21754  4.46243
O 14.5342  14.7825  -4.46243
C -3.94875  -2.69804  4.10313
O 14.0513  15.302  -4.10313
C -4.41611  -2.18711  3.71579
O 13.5839  15.8129  -3.71579
C -4.86708  -1.68243  3.30388
O 13.1329  16.3176  -3.30388
C -5.30006  -1.18043  2.8708
O 12.6999  16.8196  -2.8708
C -5.71161  -0.675253  2.4199
O 12.2884  17.3247  -2.4199
C -6.0938  -0.156302  1.95447
O 11.9062  17.8437  -1.95447
C -6.42658  0.399392  1.47779
O 11.5734  -17.6006  -1.47779
C -6.64751  1.05734  0.993506
O 11.3525  -16.9427  -0.993506
C -6.44801  2.12925  0.507635
O 11.552  -15.8708  -0.507635
C 0.839735  10.2862  0.112658
O -17.1603  -7.71383  -0.112658
C -16.7822  -7.71384  0.871878
O 1.2178  10.2862  -0.871878
C 16.1868  -9.8339  0.96457
O -1.8132  8.1661  -0.96457
C 13.886  -11.2214  1.19865
O -4.11402  6.77858  -1.19865
C 12.2556  -11.9338  1.50546
O -5.74441  6.06617  -1.50546
C 11.0326  -12.2319  1.84339
O -6.9674  5.76811  -1.84339
C 10.0423  -12.2882  2.1914
O -7.95774  5.71177  -2.1914
C 9.1884  -12.197  2.53804
O -8.8116  5.80296  -2.53804
C 8.41772  -12.0099  2.87607
O -9.58228  5.99014  -2.87607
C 7.69917  -11.7562  3.20024
O -10.3008  6.24376  -3.20024
C 7.01371  -11.4541  3.50632
O -10.9863  6.54591  -3.50632
C 6.34916  -11.1148  3.79067
O -11.6508  6.88518  -3.79067
C 5.69747  -10.7462  4.05004
O -12.3025  7.25378  -4.05004
C 5.05325  -10.3539  4.28146
O -12.9467  7.64608  -4.28146
C 4.41293  -9.94229  4.48226
O -13.5871  8.05771  -4.48226
C 3.77422  -9.51502  4.65005
O -14.2258  8.48498  -4.65005
C 3.13576  -9.07544  4.78279
O -14.8642  8.92456  -4.78279
C 2.49691  -8.62667  4.87884
O -15.5031  9.37333  -4.87884
C 1.85753  -8.17178  4.93697
O -16.1425  9.82822  -4.93697
C 1.2178  -7.71384  4.95643
O -16.7822  10.2862  -4.95643
C 0.578066  -7.2559  4.93697
O -17.4219  10.7441  -4.93697
C -0.0613165  -6.80101  4.87884
O 17.9387  11.199  -4.87884
C -0.700166  -6.35224  4.78279
O 17.2998  11.6478  -4.78279
C -1.33863  -5.91265  4.65005
O 16.6614  12.0873  -4.65005
C -1.97734  -5.48539  4.48226
O 16.0227  12.5146  -4.48226
C -2.61766  -5.07376  4.28146
O 15.3823  12.9262  -4.28146
C -3.26188  -4.68145  4.05004
O 14.7381  13.3185  -4.05004
C -3.91357  -4.31285  3.79067
O 14.0864  13.6871  -3.79067
C -4.57812  -3.97359  3.50632
O 13.4219  14.0264  -3.50632
C -5.26357  -3.67143  3.20024
O 12.7364  14.3286  -3.20024
C -5.98212  -3.41782  2.87607
O 12.0179  14.5822  -2.87607
C -6.75281  -3.23064  2.53804
O 11.2472  14.7694  -2.53804
C -7.60667  -3.13945  2.1914
O 10.3933  14.8606  -2.1914
C -8.59701  -3.19579  1.84339
O 9.40299  14.8042  -1.84339
C -9.82  -3.49385  1.50546
O 8.18  14.5061  -1.50546
C -11.4504  -4.20626  1.19865
O 6.54961  13.7937  -1.19865
C -13.7512  -5.59378  0.96457
O 4.24879  12.4062  -0.96457
C -16.7822  -7.71384  0.871878
O 1.2178  10.2862  -0.871878
C -15.6972  -7.71384  1.82954
O 2.30281  10.2862  -1.82954
C -17.2389  -8.30344  1.85478
O 0.761146  9.69656  -1.85478
C 17.2733  -8.8379  1.92786
O -0.726739  9.1621  -1.92786
C 15.8766  -9.27844  2.04178
O -2.12337  8.72156  -2.04178
C 14.5866  -9.60838  2.1873
O -3.41336  8.39162  -2.1873
C 13.4012  -9.8287  2.35491
O -4.59885  8.1713  -2.35491
C 12.3083  -9.95017  2.53601
O -5.69166  8.04983  -2.53601
C 11.2931  -9.98699  2.72325
O -6.7069  8.01301  -2.72325
C 10.3406  -9.95327  2.91051
O -7.65939  8.04673  -2.91051
C 9.43784  -9.86152  3.09277
O -8.56216  8.13848  -3.09277
C 8.57395  -9.72232  3.26582
O -9.42605  8.27768  -3.26582
C 7.74015  -9.54443  3.42616
O -10.2598  8.45557  -3.42616
C 6.92943  -9.33513  3.57082
O -11.0706  8.66487  -3.57082
C 6.13618  -9.10055  3.69733
O -11.8638  8.89945  -3.69733
C 5.35597  -8.84593  3.80363
O -12.644  9.15407  -3.80363
C 4.58521  -8.5759  3.88803
O -13.4148  9.4241  -3.88803
C 3.82101  -8.29465  3.94924
O -14.179  9.70535  -3.94924
C 3.06091  -8.00606  3.98634
O -14.9391  9.99394  -3.98634
C 2.30281  -7.71384  3.99877
O -15.6972  10.2862  -3.99877
C 1.5447  -7.42162  3.98634
O -16.4553  10.5784  -3.98634
C 0.784605  -7.13303  3.94924
O -17.2154  10.867  -3.94924
C 0.0204004  -6.85178  3.88803
O -17.9796  11.1482  -3.88803
C -0.750355  -6.58175  3.80363
O 17.2496  11.4183  -3.80363
C -1.53057  -6.32713  3.69733
O 16.4694  11.6729  -3.69733
C -2.32381  -6.09255  3.57082
O 15.6762  11.9075  -3.57082
C -3.13454  -5.88325  3.42616
O 14.8655  12.1167  -3.42616
C -3.96834  -5.70536  3.26582
O 14.0317  12.2946  -3.26582
C -4.83223  -5.56616  3.09277
O 13.1678  12.4338  -3.09277
C -5.735  -5.47441  2.91051
O 12.265  12.5256  -2.91051
C -6.68749  -5.44068  2.72325
O 11.3125  12.5593  -2.72325
C -7.70273  -5.4775  2.53601
O 10.2973  12.5225  -2.53601
C -8.79554  -5.59897  2.35491
O 9.20446  12.401  -2.35491
C -9.98103  -5.8193  2.1873
O 8.01897  12.1807  -2.1873
C -11.271  -6.14924  2.04178
O 6.72899  11.8508  -2.04178
C -12.6677  -6.58977  1.92786
O 5.33235  11.4102  -1.92786
C -14.1555  -7.12424  1.85478
O 3.84446  10.8758  -1.85478
C -15.6972  -7.71384  1.82954
O 2.30281  10.2862  -1.82954
C -9  -7.71384  2.49202
O 9  10.2862  -2.49202
C -10.1545  -7.88719  2.49942
O 7.84553  10.1128  -2.49942
C -11.3016  -8.05266  2.52126
O 6.69839  9.94734  -2.52126
C -12.4348  -8.20309  2.55654
O 5.56519  9.79691  -2.55654
C -13.5487  -8.33264  2.60372
O 4.45125  9.66736  -2.60372
C -14.6397  -8.4371  2.66081
O 3.36031  9.5629  -2.66081
C -15.7055  -8.51399  2.72556
O 2.29446  9.48601  -2.72556
C -16.7457  -8.56234  2.79558
O 1.25432  9.43766  -2.79558
C -17.7607  -8.58248  2.86847
O 0.239285  9.41752  -2.86847
C 17.2479  -8.57571  2.94191
O -0.752096  9.42429  -2.94191
C 16.2781  -8.544  3.01372
O -1.72187  9.456  -3.01372
C 15.3276  -8.48977  3.0819
O -2.67244  9.51023  -3.0819
C 14.3937  -8.4157  3.14466
O -3.60633  9.5843  -3.14466
C 13.4739  -8.3246  3.20042
O -4.52615  9.6754  -3.20042
C 12.5656  -8.21934  3.24788
O -5.43442  9.78066  -3.24788
C 11.6664  -8.10279  3.28592
O -6.33361  9.89721  -3.28592
C 10.7739  -7.97781  3.3137
O -7.22609  10.0222  -3.3137
C 9.88586  -7.84722  3.33061
O -8.11414  10.1528  -3.33061
C 9  -7.71384  3.33629
O -9  10.2862  -3.33629
C 8.11414  -7.58045  3.33061
O -9.88586  10.4195  -3.33061
C 7.22609  -7.44987  3.3137
O -10.7739  10.5501  -3.3137
C 6.33361  -7.32488  3.28592
O -11.6664  10.6751  -3.28592
C 5.43442  -7.20834  3.24788
O -12.5656  10.7917  -3.24788
C 4.52615  -7.10308  3.20042
O -13.4739  10.8969  -3.20042
C 3.60633  -7.01198  3.14466
O -14.3937  10.988  -3.14466
C 2.67244  -6.93791  3.0819
O -15.3276  11.0621  -3.0819
C 1.72187  -6.88368  3.01372
O -16.2781  11.1163  -3.01372
C 0.752096  -6.85197  2.94191
O -17.2479  11.148  -2.94191
C -0.239285  -6.8452  2.86847
O 17.7607  11.1548  -2.86847
C -1.25432  -6.86534  2.79558
O 16.7457  11.1347  -2.79558
C -2.29446  -6.91369  2.72556
O 15.7055  11.0863  -2.72556
C -3.36031  -6.99057  2.66081
O 14.6397  11.0094  -2.66081
C -4.45125  -7.09504  2.60372
O 13.5487  10.905  -2.60372
C -5.56519  -7.22459  2.55654
O 12.4348  10.7754  -2.55654
C -6.69839  -7.37502  2.52126
O 11.3016  10.625  -2.52126
C -7.84553  -7.54048  2.49942
O 10.1545  10.4595  -2.49942
C -9  -7.71384  2.49202
O 9  10.2862  -2.49202
C -2.30281  -7.71384  1.82954
O 15.6972  10.2862  -1.82954
C -3.84446  -8.30344  1.85478
O 14.1555  9.69656  -1.85478
C -5.33235  -8.8379  1.92786
O 12.6677  9.1621  -1.92786
C -6.72899  -9.27844  2.04178
O 11.271  8.72156  -2.04178
C -8.01897  -9.60838  2.1873
O 9.98103  8.39162  -2.1873
C -9.20446  -9.8287  2.35491
O 8.79554  8.1713  -2.35491
C -10.2973  -9.95017  2.53601
O 7.70273  8.04983  -2.53601
C -11.3125  -9.98699  2.72325
O 6.68749  8.01301  -2.72325
C -12.265  -9.95327  2.91051
O 5.735  8.04673  -2.91051
C -13.1678  -9.86152  3.09277
O 4.83223  8.13848  -3.09277
C -14.0317  -9.72232  3.26582
O 3.96834  8.27768  -3.26582
C -14.8655  -9.54443  3.42616
O 3.13454  8.45557  -3.42616
C -15.6762  -9.33513  3.57082
O 2.32381  8.66487  -3.57082
C -16.4694  -9.10055  3.69733
O 1.53057  8.89945  -3.69733
C -17.2496  -8.84593  3.80363
O 0.750355  9.15407  -3.80363
C 17.9796  -8.5759  3.88803
O -0.0204004  9.4241  -3.88803
C 17.2154  -8.29465  3.94924
O -0.784605  9.70535  -3.94924
C 16.4553  -8.00606  3.98634
O -1.5447  9.99394  -3.98634
C 15.6972  -7.71384  3.99877
O -2.30281  10.2862  -3.99877
C 14.9391  -7.42162  3.98634
O -3.06091  10.5784  -3.98634
C 14.179  -7.13303  3.94924
O -3.82101  10.867  -3.94924
C 13.4148  -6.85178  3.88803
O -4.58521  11.1482  -3.88803
C 12.644  -6.58175  3.80363
O -5.35597  11.4183  -3.80363
C 11.8638  -6.32713  3.69733
O -6.13618  11.6729  -3.69733
C 11.0706  -6.09255  3.57082
O -6.92943  11.9075  -3.57082
C 10.2598  -5.88325  3.42616
O -7.74015  12.1167  -3.42616
C 9.42605  -5.70536  3.26582
O -8.57395  12.2946  -3.26582
C 8.56216  -5.56616  3.09277
O -9.43784  12.4338  -3.09277
C 7.65939  -5.47441  2.91051
O -10.3406  12.5256  -2.91051
C 6.7069  -5.44068  2.72325
O -11.2931  12.5593  -2.72325
C 5.69166  -5.4775  2.53601
O -12.3083  12.5225  -2.53601
C 4.59885  -5.59897  2.35491
O -13.4012  12.401  -2.35491
C 3.41336  -5.8193  2.1873
O -14.5866  12.1807  -2.1873
C 2.12337  -6.14924  2.04178
O -15.8766  11.8508  -2.04178
C 0.726739  -6.58977  1.92786
O -17.2733  11.4102  -1.92786
C -0.761146  -7.12424  1.85478
O 17.2389  10.8758  -1.85478
C -2.30281  -7.71384  1.82954
O 15.6972  10.2862  -1.82954
C -1.2178  -7.71384  0.871878
O 16.7822  10.2862  -0.871878
C -4.24879  -9.8339  0.96457
O 13.7512  8.1661  -0.96457
C -6.54961  -11.2214  1.19865
O 11.4504  6.77858  -1.19865
C -8.18001  -11.9338  1.50546
O 9.81999  6.06617  -1.50546
C -9.40299  -12.2319  1.84339
O 8.59701  5.76811  -1.84339
C -10.3933  -12.2882  2.1914
O 7.60667  5.71177  -2.1914
C -11.2472  -12.197  2.53804
O 6.75281  5.80296  -2.53804
C -12.0179  -12.0099  2.87607
O 5.98212  5.99014  -2.87607
C -12.7364  -11.7562  3.20024
O 5.26357  6.24376  -3.20024
C -13.4219  -11.4541  3.50632
O 4.57812  6.54591  -3.50632
C -14.0864  -11.1148  3.79067
O 3.91357  6.88518  -3.79067
C -14.7381  -10.7462  4.05004
O 3.26188  7.25378  -4.05004
C -15.3823  -10.3539  4.28146
O 2.61766  7.64608  -4.28146
C -16.0227  -9.94229  4.48226
O 1.97734  8.05771  -4.48226
C -16.6614  -9.51502  4.65005
O 1.33863  8.48498  -4.65005
C -17.2998  -9.07544  4.78279
O 0.700166  8.92456  -4.78279
C -17.9387  -8.62667  4.87884
O 0.0613163  9.37333  -4.87884
C 17.4219  -8.17178  4.93697
O -0.578066  9.82822  -4.93697
C 16.7822  -7.71384  4.95643
O -1.2178  10.2862  -4.95643
C 16.1425  -7.2559  4.93697
O -1.85753  10.7441  -4.93697
C 15.5031  -6.80101  4.87884
O -2.49691  11.199  -4.87884
C 14.8642  -6.35224  4.78279
O -3.13576  11.6478  -4.78279
C 14.2258  -5.91265  4.65004
O -3.77422  12.0873  -4.65004
C 13.5871  -5.48539  4.48226
O -4.41293  12.5146  -4.48226
C 12.9467  -5.07376  4.28146
O -5.05326  12.9262  -4.28146
C 12.3025  -4.68145  4.05004
O -5.69747  13.3185  -4.05004
C 11.6508  -4.31285  3.79067
O -6.34916  13.6871  -3.79067
C 10.9863  -3.97359  3.50632
O -7.01371  14.0264  -3.50632
C 10.3008  -3.67143  3.20024
O -7.69917  14.3286  -3.20024
C 9.58228  -3.41782  2.87607
O -8.41772  14.5822  -2.87607
C 8.8116  -3.23064  2.53804
O -9.1884  14.7694  -2.53804
C 7.95774  -3.13945  2.1914
O -10.0423  14.8606  -2.1914
C 6.9674  -3.19579  1.84339
O -11.0326  14.8042  -1.84339
C 5.74441  -3.49385  1.50546
O -12.2556  14.5061  -1.50546
C 4.11402  -4.20626  1.19865
O -13.886  13.7937  -1.19865
C 1.8132  -5.59378  0.96457
O -16.1868  12.4062  -0.96457
C -1.2178  -7.71384  0.871878
O 16.7822  10.2862  -0.871878
C 17.1603  10.2862  0.112658
O -0.839728  -7.71383  -0.112658
C -11.552  -17.5569  0.507635
O 6.44801  0.443077  -0.507635
C -11.3525  -16.485  0.993506
O 6.64751  1.51499  -0.993506
C -11.5734  -15.8271  1.47779
O 6.42658  2.17293  -1.47779
C -11.9062  -15.2714  1.95447
O 6.0938  2.72862  -1.95447
C -12.2884  -14.7524  2.4199
O 5.71161  3.24758  -2.4199
C -12.6999  -14.2472  2.8708
O 5.30006  3.75275  -2.8708
C -13.1329  -13.7452  3.30388
O 4.86708  4.25475  -3.30388
C -13.5839  -13.2406  3.71579
O 4.41611  4.75943  -3.71579
C -14.0513  -12.7296  4.10313
O 3.94875  5.27037  -4.10313
C -14.5342  -12.2101  4.46243
O 3.46582  5.78986  -4.46243
C -15.0321  -11.6807  4.7902
O 2.96792  6.31933  -4.7902
C -15.5443  -11.1405  5.083
O 2.45571  6.85947  -5.083
C -16.0699  -10.5897  5.3375
O 1.93009  7.41033  -5.3375
C -16.6077  -10.0287  5.55059
O 1.39234  7.97134  -5.55059
C -17.1558  -9.45865  5.71951
O 0.844167  8.54135  -5.71951
C -17.7123  -8.88136  5.84193
O 0.287703  9.11864  -5.84193
C 17.7255  -8.29893  5.91612
O -0.274533  9.70107  -5.91612
C 17.1603  -7.71384  5.94097
O -0.839732  10.2862  -5.94097
C 16.5951  -7.12875  5.91612
O -1.40493  10.8713  -5.91612
C 16.0328  -6.54632  5.84193
O -1.96717  11.4537  -5.84193
C 15.4764  -5.96902  5.71951
O -2.52363  12.031  -5.71951
C 14.9282  -5.39902  5.55059
O -3.0718  12.601  -5.55059
C 14.3904  -4.83801  5.3375
O -3.60955  13.162  -5.3375
C 13.8648  -4.28715  5.083
O -4.13517  13.7129  -5.083
C 13.3526  -3.74701  4.7902
O -4.64739  14.253  -4.7902
C 12.8547  -3.21754  4.46243
O -5.14529  14.7825  -4.46243
C 12.3718  -2.69804  4.10313
O -5.62821  15.302  -4.10313
C 11.9044  -2.18711  3.71579
O -6.09557  15.8129  -3.71579
C 11.4535  -1.68243  3.30388
O -6.54654  16.3176  -3.30388
C 11.0205  -1.18043  2.8708
O -6.97953  16.8196  -2.8708
C 10.6089  -0.675253  2.4199
O -7.39107  17.3247  -2.4199
C 10.2267  -0.156302  1.95447
O -7.77326  17.8437  -1.95447
C 9.89395  0.399392  1.47779
O -8.10605  -17.6006  -1.47779
C 9.67303  1.05734  0.993506
O -8.32697  -16.9427  -0.993506
C 9.87253  2.12925  0.507635
O -8.12747  -15.8708  -0.507635
C 17.1603  10.2862  0.112658
O -0.839728  -7.71383  -0.112658
C 17.345  10.2862  1.10433
O -0.655043  -7.71384  -1.10433
C -16.3341  13.4341  1.23902
O 1.66593  -4.56585  -1.23902
C -14.8656  15.7336  1.57336
O 3.13443  -2.26635  -1.57336
C -14.1303  17.3078  2.00514
O 3.86966  -0.692153  -2.00514
C -13.822  -17.5329  2.47738
O 4.17801  0.4671  -2.47738
C -13.7565  -16.6006  2.96296
O 4.24351  1.39935  -2.96296
C -13.8388  -15.7965  3.44751
O 4.1612  2.20347  -3.44751
C -14.0188  -15.0667  3.92192
O 3.98121  2.93326  -3.92192
C -14.2687  -14.3801  4.37945
O 3.73134  3.61992  -4.37945
C -14.5721  -13.7172  4.81438
O 3.42787  4.28276  -4.81438
C -14.9191  -13.0657  5.22151
O 3.08087  4.93431  -5.22151
C -15.303  -12.4171  5.59585
O 2.69702  5.58292  -5.59585
C -15.7188  -11.7658  5.9326
O 2.2812  6.23416  -5.9326
C -16.1625  -11.1085  6.22712
O 1.83749  6.89147  -6.22712
C -16.6303  -10.4434  6.47508
O 1.36974  7.55665  -6.47508
C -17.118  -9.76997  6.67253
O 0.881975  8.23003  -6.67253
C -17.6214  -9.08923  6.81614
O 0.378611  8.91077  -6.81614
C 17.8645  -8.403  6.90338
O -0.135479  9.597  -6.90338
C 17.345  -7.71384  6.93264
O -0.655044  10.2862  -6.93264
C 16.8254  -7.02467  6.90338
O -1.17461  10.9753  -6.90338
C 16.3113  -6.33844  6.81614
O -1.6887  11.6616  -6.81614
C 15.8079  -5.65771  6.67253
O -2.19206  12.3423  -6.67253
C 15.3202  -4.98432  6.47508
O -2.67983  13.0157  -6.47508
C 14.8524  -4.31915  6.22712
O -3.14758  13.6809  -6.22712
C 14.4087  -3.66184  5.9326
O -3.59129  14.3382  -5.9326
C 13.9929  -3.0106  5.59585
O -4.0071  14.9894  -5.59585
C 13.609  -2.36198  5.22151
O -4.39095  15.638  -5.22151
C 13.262  -1.71043  4.81438
O -4.73796  16.2896  -4.81438
C 12.9586  -1.04759  4.37945
O -5.04143  16.9524  -4.37945
C 12.7087  -0.360933  3.92192